       N       E                     dE             d eps       ncg     rms          rms(c)
DAV:   1     0.814323956652E+04    0.81432E+04   -0.43695E+05 22992   0.137E+03
DAV:   2    -0.442745581873E+03   -0.85860E+04   -0.83193E+04 27744   0.340E+02
DAV:   3    -0.134720947439E+04   -0.90446E+03   -0.89229E+03 24912   0.107E+02
DAV:   4    -0.138079967796E+04   -0.33590E+02   -0.33375E+02 26160   0.227E+01
DAV:   5    -0.138181367849E+04   -0.10140E+01   -0.10116E+01 26208   0.353E+00    0.181E+02
DAV:   6    -0.106977728361E+04    0.31204E+03   -0.11607E+03 23472   0.459E+01    0.746E+01
DAV:   7    -0.109315975852E+04   -0.23382E+02   -0.87799E+02 24384   0.345E+01    0.601E+01
DAV:   8    -0.104902386502E+04    0.44136E+02   -0.99498E+01 24672   0.132E+01    0.413E+01
DAV:   9    -0.104651148482E+04    0.25124E+01   -0.97592E+01 24048   0.116E+01    0.360E+01
DAV:  10    -0.104355624135E+04    0.29552E+01   -0.76625E+01 23760   0.789E+00    0.286E+01
DAV:  11    -0.104899020106E+04   -0.54340E+01   -0.13043E+01 22848   0.351E+00    0.260E+01
DAV:  12    -0.105676553777E+04   -0.77753E+01   -0.10283E+01 24288   0.371E+00    0.243E+01
DAV:  13    -0.107305191544E+04   -0.16286E+02   -0.87099E+00 23376   0.393E+00    0.211E+01
DAV:  14    -0.108591097370E+04   -0.12859E+02   -0.40196E+00 24768   0.282E+00    0.201E+01
DAV:  15    -0.110301173337E+04   -0.17101E+02   -0.67161E+00 23904   0.337E+00    0.193E+01
DAV:  16    -0.111689055093E+04   -0.13879E+02   -0.52440E+00 24096   0.303E+00    0.183E+01
DAV:  17    -0.113007799486E+04   -0.13187E+02   -0.61013E+00 25872   0.312E+00    0.168E+01
DAV:  18    -0.114381510871E+04   -0.13737E+02   -0.40705E+00 22992   0.242E+00    0.158E+01
DAV:  19    -0.115938697510E+04   -0.15572E+02   -0.56975E+00 23808   0.279E+00    0.151E+01
DAV:  20    -0.116969385803E+04   -0.10307E+02   -0.54006E+00 24720   0.257E+00    0.142E+01
DAV:  21    -0.118249265148E+04   -0.12799E+02   -0.54907E+00 23808   0.282E+00    0.127E+01
DAV:  22    -0.119642049090E+04   -0.13928E+02   -0.11116E+01 24624   0.355E+00    0.979E+00
DAV:  23    -0.120286012222E+04   -0.64396E+01   -0.74473E+00 24048   0.296E+00    0.754E+00
DAV:  24    -0.120843445929E+04   -0.55743E+01   -0.30747E+00 23328   0.202E+00    0.580E+00
DAV:  25    -0.120888716890E+04   -0.45271E+00   -0.17461E+00 23328   0.141E+00    0.496E+00
DAV:  26    -0.121034163481E+04   -0.14545E+01   -0.12196E+00 22752   0.124E+00    0.371E+00
DAV:  27    -0.121179974582E+04   -0.14581E+01   -0.61499E-01 24192   0.858E-01    0.317E+00
DAV:  28    -0.121334385776E+04   -0.15441E+01   -0.47934E-01 22800   0.810E-01    0.274E+00
DAV:  29    -0.121445198330E+04   -0.11081E+01   -0.29915E-01 23088   0.643E-01    0.227E+00
DAV:  30    -0.121509146591E+04   -0.63948E+00   -0.25113E-01 24240   0.589E-01    0.219E+00
DAV:  31    -0.121561332622E+04   -0.52186E+00   -0.25502E-01 23232   0.512E-01    0.168E+00
DAV:  32    -0.121770640039E+04   -0.20931E+01   -0.21937E-01 23328   0.498E-01    0.165E+00
DAV:  33    -0.121844348479E+04   -0.73708E+00   -0.20573E-01 24096   0.435E-01    0.129E+00
DAV:  34    -0.121922388472E+04   -0.78040E+00   -0.88185E-02 24480   0.309E-01    0.101E+00
DAV:  35    -0.121999341038E+04   -0.76953E+00   -0.10463E-01 23616   0.319E-01    0.645E-01
DAV:  36    -0.122016625828E+04   -0.17285E+00   -0.17642E-02 24624   0.163E-01    0.553E-01
DAV:  37    -0.122038050273E+04   -0.21424E+00   -0.17180E-02 24048   0.165E-01    0.422E-01
DAV:  38    -0.122056248967E+04   -0.18199E+00   -0.11630E-02 24336   0.134E-01    0.578E-01
DAV:  39    -0.122065649891E+04   -0.94009E-01   -0.42657E-03 23664   0.896E-02    0.341E-01
DAV:  40    -0.122080316796E+04   -0.14667E+00   -0.87787E-03 23856   0.126E-01    0.283E-01
DAV:  41    -0.122085278662E+04   -0.49619E-01   -0.29494E-03 24576   0.681E-02    0.204E-01
DAV:  42    -0.122092401403E+04   -0.71227E-01   -0.29575E-03 24144   0.640E-02    0.142E-01
DAV:  43    -0.122099620471E+04   -0.72191E-01   -0.28474E-03 24720   0.574E-02    0.179E-01
DAV:  44    -0.122102009859E+04   -0.23894E-01   -0.60043E-04 24672   0.376E-02    0.148E-01
DAV:  45    -0.122104949695E+04   -0.29398E-01   -0.72564E-04 24960   0.420E-02    0.106E-01
DAV:  46    -0.122106207191E+04   -0.12575E-01   -0.87666E-04 24048   0.384E-02    0.987E-02
DAV:  47    -0.122106209432E+04   -0.22412E-04   -0.61533E-04 25056   0.350E-02    0.830E-02
DAV:  48    -0.122106018881E+04    0.19055E-02   -0.65095E-04 24240   0.375E-02    0.843E-02
DAV:  49    -0.122105614550E+04    0.40433E-02   -0.61449E-04 24672   0.371E-02    0.612E-02
DAV:  50    -0.122105924713E+04   -0.31016E-02   -0.45390E-04 24432   0.317E-02    0.543E-02
DAV:  51    -0.122106645559E+04   -0.72085E-02   -0.21271E-04 25680   0.234E-02    0.529E-02
DAV:  52    -0.122107720104E+04   -0.10745E-01   -0.12108E-04 22416   0.199E-02    0.506E-02
DAV:  53    -0.122110253023E+04   -0.25329E-01   -0.21341E-04 23424   0.268E-02    0.399E-02
DAV:  54    -0.122111269877E+04   -0.10169E-01   -0.83545E-05 22848   0.163E-02    0.374E-02
DAV:  55    -0.122112020551E+04   -0.75067E-02   -0.42169E-05 20256   0.135E-02    0.347E-02
DAV:  56    -0.122113275045E+04   -0.12545E-01   -0.82306E-05 21072   0.180E-02    0.322E-02
DAV:  57    -0.122114272349E+04   -0.99730E-02   -0.73227E-05 21360   0.171E-02    0.329E-02
DAV:  58    -0.122114904806E+04   -0.63246E-02   -0.41148E-05 21792   0.133E-02    0.308E-02
DAV:  59    -0.122115562201E+04   -0.65739E-02   -0.54172E-05 21888   0.152E-02    0.251E-02
DAV:  60    -0.122115976625E+04   -0.41442E-02   -0.42475E-05 21600   0.128E-02    0.196E-02
DAV:  61    -0.122116215461E+04   -0.23884E-02   -0.26604E-05 19920   0.878E-03    0.167E-02
DAV:  62    -0.122116398732E+04   -0.18327E-02   -0.19310E-05 18720   0.660E-03    0.158E-02
DAV:  63    -0.122116582889E+04   -0.18416E-02   -0.29656E-05 18336   0.662E-03    0.128E-02
DAV:  64    -0.122116734960E+04   -0.15207E-02   -0.14547E-05 18000   0.458E-03    0.108E-02
DAV:  65    -0.122116844449E+04   -0.10949E-02   -0.15074E-05 18720   0.386E-03    0.934E-03
DAV:  66    -0.122116940661E+04   -0.96212E-03   -0.11511E-05 18240   0.360E-03    0.917E-03
DAV:  67    -0.122117030863E+04   -0.90202E-03   -0.11129E-05 18624   0.454E-03    0.695E-03
DAV:  68    -0.122117101759E+04   -0.70896E-03   -0.52731E-06 17616   0.364E-03    0.619E-03
DAV:  69    -0.122117199051E+04   -0.97292E-03   -0.86823E-06 17760   0.550E-03    0.720E-03
DAV:  70    -0.122117297382E+04   -0.98331E-03   -0.15138E-05 19440   0.656E-03    0.353E-03
DAV:  71    -0.122117335166E+04   -0.37784E-03   -0.55137E-06 17616   0.338E-03    0.337E-03
DAV:  72    -0.122117360051E+04   -0.24885E-03   -0.16353E-06 17088   0.209E-03    0.197E-03
DAV:  73    -0.122117374866E+04   -0.14815E-03   -0.97368E-07 16992   0.154E-03    0.195E-03
DAV:  74    -0.122117382667E+04   -0.78012E-04   -0.44579E-07 16512   0.123E-03    0.118E-03
DAV:  75    -0.122117389351E+04   -0.66842E-04   -0.43097E-07 16752   0.103E-03    0.103E-03
DAV:  76    -0.122117393526E+04   -0.41746E-04   -0.24499E-07 16752   0.874E-04    0.848E-04
DAV:  77    -0.122117396275E+04   -0.27492E-04   -0.35944E-08 16896   0.795E-04    0.689E-04
DAV:  78    -0.122117397816E+04   -0.15413E-04   -0.16987E-07 16992   0.954E-04    0.612E-04
DAV:  79    -0.122117398155E+04   -0.33867E-05    0.28741E-08 16368   0.811E-04
   1 F= -.12211740E+04 E0= -.12211728E+04  d E =-.242000E-02  mag=     4.7775
