 vasp.5.4.1 24Jun15 (build Dec 27 2015 16:41:11) complex                        
  
 executed on             LinuxIFC date 2020.11.20  09:23:54
 running on   48 total cores
 distrk:  each k-point on   48 cores,    1 groups
 distr:  one band on NCORES_PER_BAND=   1 cores,   48 groups


--------------------------------------------------------------------------------------------------------


 INCAR:
 POTCAR:    PAW_PBE Mo_sv 02Feb2006               
 POTCAR:    PAW_PBE N 08Apr2002                   
 POTCAR:    PAW_PBE Si 05Jan2001                  

 ----------------------------------------------------------------------------- 
|                                                                             |
|           W    W    AA    RRRRR   N    N  II  N    N   GGGG   !!!           |
|           W    W   A  A   R    R  NN   N  II  NN   N  G    G  !!!           |
|           W    W  A    A  R    R  N N  N  II  N N  N  G       !!!           |
|           W WW W  AAAAAA  RRRRR   N  N N  II  N  N N  G  GGG   !            |
|           WW  WW  A    A  R   R   N   NN  II  N   NN  G    G                |
|           W    W  A    A  R    R  N    N  II  N    N   GGGG   !!!           |
|                                                                             |
|      For optimal performance we recommend to set                            |
|        NCORE= 4 - approx SQRT( number of cores)                             |
|      NCORE specifies how many cores store one orbital (NPAR=cpu/NCORE).     |
|      This setting can  greatly improve the performance of VASP for DFT.     |
|      The default, NPAR=number of cores might be grossly inefficient         |
|      on modern multi-core architectures or massively parallel machines.     |
|      Do your own testing !!!!                                               |
|      Unfortunately you need to use the default for GW and RPA calculations. |
|      (for HF NCORE is supported but not extensively tested yet)             |
|                                                                             |
 ----------------------------------------------------------------------------- 

 POTCAR:    PAW_PBE Mo_sv 02Feb2006               
   VRHFIN =Mo: 4p5s4d                                                           
   LEXCH  = PE                                                                  
   EATOM  =  1862.2866 eV,  136.8742 Ry                                         
                                                                                
   TITEL  = PAW_PBE Mo_sv 02Feb2006                                             
   LULTRA =        F    use ultrasoft PP ?                                      
   IUNSCR =        1    unscreen: 0-lin 1-nonlin 2-no                           
   RPACOR =    2.200    partial core radius                                     
   POMASS =   95.940; ZVAL   =   14.000    mass and valenz                      
   RCORE  =    2.500    outmost cutoff radius                                   
   RWIGS  =    2.750; RWIGS  =    1.455    wigner-seitz radius (au A)           
   ENMAX  =  242.676; ENMIN  =  182.007 eV                                      
   ICORE  =        3    local potential                                         
   LCOR   =        T    correct aug charges                                     
   LPAW   =        T    paw PP                                                  
   EAUG   =  446.014                                                            
   DEXC   =    0.000                                                            
   RMAX   =    2.563    core radius for proj-oper                               
   RAUG   =    1.300    factor for augmentation sphere                          
   RDEP   =    2.641    radius for radial grids                                 
   RDEPT  =    2.031    core radius for aug-charge                              
                                                                                
   Atomic configuration                                                         
   11 entries                                                                   
     n  l   j            E        occ.                                          
     1  0  0.50    -19819.0341   2.0000                                         
     2  0  0.50     -2799.0127   2.0000                                         
     2  1  1.50     -2502.0276   6.0000                                         
     3  0  0.50      -476.4449   2.0000                                         
     3  1  1.50      -379.1496   6.0000                                         
     3  2  2.50      -220.9367  10.0000                                         
     4  0  0.50       -64.3378   2.0000                                         
     5  0  0.50        -4.0862   1.0000                                         
     4  1  1.50       -38.4773   6.0000                                         
     4  2  2.50        -3.7535   5.0000                                         
     4  3  2.50        -1.3606   0.0000                                         
   Description                                                                  
     l       E           TYP  RCUT    TYP  RCUT                                 
     0    -64.3377829     23  2.100                                             
     0     -4.0861640     23  2.400                                             
     1    -38.4772993     23  2.100                                             
     1     13.6058260     23  2.100                                             
     2     -3.7534941     23  2.400                                             
     2     -5.1140767     23  2.400                                             
     3     -4.0817478     23  2.500                                             
  local pseudopotential read in
  partial core-charges read in
  partial kinetic energy density read in
  atomic valenz-charges read in
  non local Contribution for L=           0  read in
    real space projection operators read in
  non local Contribution for L=           0  read in
    real space projection operators read in
  non local Contribution for L=           1  read in
    real space projection operators read in
  non local Contribution for L=           1  read in
    real space projection operators read in
  non local Contribution for L=           2  read in
    real space projection operators read in
  non local Contribution for L=           2  read in
    real space projection operators read in
    PAW grid and wavefunctions read in
 
   number of l-projection  operators is LMAX  =           6
   number of lm-projection operators is LMMAX =          18
 
 POTCAR:    PAW_PBE N 08Apr2002                   
   VRHFIN =N: s2p3                                                              
   LEXCH  = PE                                                                  
   EATOM  =   264.5486 eV,   19.4438 Ry                                         
                                                                                
   TITEL  = PAW_PBE N 08Apr2002                                                 
   LULTRA =        F    use ultrasoft PP ?                                      
   IUNSCR =        1    unscreen: 0-lin 1-nonlin 2-no                           
   RPACOR =    1.200    partial core radius                                     
   POMASS =   14.001; ZVAL   =    5.000    mass and valenz                      
   RCORE  =    1.500    outmost cutoff radius                                   
   RWIGS  =    1.400; RWIGS  =    0.741    wigner-seitz radius (au A)           
   ENMAX  =  400.000; ENMIN  =  300.000 eV                                      
   ICORE  =        2    local potential                                         
   LCOR   =        T    correct aug charges                                     
   LPAW   =        T    paw PP                                                  
   EAUG   =  627.112                                                            
   DEXC   =    0.000                                                            
   RMAX   =    1.529    core radius for proj-oper                               
   RAUG   =    1.300    factor for augmentation sphere                          
   RDEP   =    1.514    radius for radial grids                                 
   RDEPT  =    1.338    core radius for aug-charge                              
                                                                                
   Atomic configuration                                                         
    4 entries                                                                   
     n  l   j            E        occ.                                          
     1  0  0.50      -384.7179   2.0000                                         
     2  0  0.50       -18.5828   2.0000                                         
     2  1  0.50        -7.0898   3.0000                                         
     3  2  1.50        -6.8029   0.0000                                         
   Description                                                                  
     l       E           TYP  RCUT    TYP  RCUT                                 
     0    -18.5828119     23  1.200                                             
     0    -13.5018863     23  1.200                                             
     1     -7.0897853     23  1.500                                             
     1      9.5240782     23  1.500                                             
     2     -6.8029130      7  1.500                                             
  local pseudopotential read in
  partial core-charges read in
  partial kinetic energy density read in
  atomic valenz-charges read in
  non local Contribution for L=           0  read in
    real space projection operators read in
  non local Contribution for L=           0  read in
    real space projection operators read in
  non local Contribution for L=           1  read in
    real space projection operators read in
  non local Contribution for L=           1  read in
    real space projection operators read in
    PAW grid and wavefunctions read in
 
   number of l-projection  operators is LMAX  =           4
   number of lm-projection operators is LMMAX =           8
 
 POTCAR:    PAW_PBE Si 05Jan2001                  
   VRHFIN =Si: s2p2                                                             
   LEXCH  = PE                                                                  
   EATOM  =   103.0669 eV,    7.5752 Ry                                         
                                                                                
   TITEL  = PAW_PBE Si 05Jan2001                                                
   LULTRA =        F    use ultrasoft PP ?                                      
   IUNSCR =        1    unscreen: 0-lin 1-nonlin 2-no                           
   RPACOR =    1.500    partial core radius                                     
   POMASS =   28.085; ZVAL   =    4.000    mass and valenz                      
   RCORE  =    1.900    outmost cutoff radius                                   
   RWIGS  =    2.480; RWIGS  =    1.312    wigner-seitz radius (au A)           
   ENMAX  =  245.345; ENMIN  =  184.009 eV                                      
   ICORE  =        2    local potential                                         
   LCOR   =        T    correct aug charges                                     
   LPAW   =        T    paw PP                                                  
   EAUG   =  322.069                                                            
   DEXC   =    0.000                                                            
   RMAX   =    1.950    core radius for proj-oper                               
   RAUG   =    1.300    factor for augmentation sphere                          
   RDEP   =    1.993    radius for radial grids                                 
   RDEPT  =    1.837    core radius for aug-charge                              
                                                                                
   Atomic configuration                                                         
    6 entries                                                                   
     n  l   j            E        occ.                                          
     1  0  0.50     -1785.8828   2.0000                                         
     2  0  0.50      -139.4969   2.0000                                         
     2  1  1.50       -95.5546   6.0000                                         
     3  0  0.50       -10.8127   2.0000                                         
     3  1  0.50        -4.0811   2.0000                                         
     3  2  1.50        -4.0817   0.0000                                         
   Description                                                                  
     l       E           TYP  RCUT    TYP  RCUT                                 
     0    -10.8127223     23  1.900                                             
     0     -7.6451159     23  1.900                                             
     1     -4.0811372     23  1.900                                             
     1      2.4879257     23  1.900                                             
     2     -4.0817478      7  1.900                                             
  local pseudopotential read in
  partial core-charges read in
  partial kinetic energy density read in
  atomic valenz-charges read in
  non local Contribution for L=           0  read in
    real space projection operators read in
  non local Contribution for L=           0  read in
    real space projection operators read in
  non local Contribution for L=           1  read in
    real space projection operators read in
  non local Contribution for L=           1  read in
    real space projection operators read in
    PAW grid and wavefunctions read in
 
   number of l-projection  operators is LMAX  =           4
   number of lm-projection operators is LMMAX =           8
 
 Optimization of the real space projectors (new method)

 maximal supplied QI-value         = 15.12
 optimisation between [QCUT,QGAM] = [ 12.55, 25.10] = [ 44.09,176.36] Ry 
 Optimized for a Real-space Cutoff    1.61 Angstroem

   l    n(q)    QCUT    max X(q) W(low)/X(q) W(high)/X(q)  e(spline) 
   0     12    12.548     3.559    0.37E-05    0.27E-05    0.23E-06
   0     12    12.548    20.730    0.32E-04    0.37E-05    0.26E-06
   1     12    12.548     3.279    0.14E-06    0.19E-06    0.38E-07
   1     12    12.548     4.693    0.16E-04    0.21E-04    0.34E-06
   2     11    12.548    67.616    0.75E-04    0.14E-03    0.75E-06
   2     11    12.548    62.420    0.75E-04    0.15E-03    0.75E-06
 Optimization of the real space projectors (new method)

 maximal supplied QI-value         = 25.13
 optimisation between [QCUT,QGAM] = [ 12.32, 24.88] = [ 42.47,173.37] Ry 
 Optimized for a Real-space Cutoff    1.35 Angstroem

   l    n(q)    QCUT    max X(q) W(low)/X(q) W(high)/X(q)  e(spline) 
   0     10    12.315    79.467    0.60E-04    0.26E-05    0.59E-06
   0     10    12.315    66.151    0.59E-04    0.23E-05    0.59E-06
   1     10    12.315    22.077    0.13E-03    0.23E-03    0.74E-06
   1     10    12.315    15.894    0.13E-03    0.24E-03    0.75E-06
 Optimization of the real space projectors (new method)

 maximal supplied QI-value         = 19.84
 optimisation between [QCUT,QGAM] = [ 12.50, 25.00] = [ 43.76,175.03] Ry 
 Optimized for a Real-space Cutoff    1.16 Angstroem

   l    n(q)    QCUT    max X(q) W(low)/X(q) W(high)/X(q)  e(spline) 
   0      9    12.501   159.560    0.10E-03    0.83E-04    0.71E-07
   0      9    12.501   115.863    0.99E-04    0.81E-04    0.70E-07
   1      8    12.501    88.339    0.20E-03    0.25E-03    0.76E-07
   1      8    12.501    48.592    0.20E-03    0.24E-03    0.75E-07
  PAW_PBE Mo_sv 02Feb2006               :
 energy of atom  1       EATOM=-1862.2866
 kinetic energy error for atom=    0.0041 (will be added to EATOM!!)
  PAW_PBE N 08Apr2002                   :
 energy of atom  2       EATOM= -264.5486
 kinetic energy error for atom=    0.0103 (will be added to EATOM!!)
  PAW_PBE Si 05Jan2001                  :
 energy of atom  3       EATOM= -103.0669
 kinetic energy error for atom=    0.0003 (will be added to EATOM!!)
 
 
 POSCAR: CONTCAR40                               
  positions in direct lattice
  velocities in cartesian coordinates
 exchange correlation table for  LEXCH =        8
   RHO(1)=    0.500       N(1)  =     2000
   RHO(2)=  100.500       N(2)  =     4000
 


--------------------------------------------------------------------------------------------------------


 ion  position               nearest neighbor table
   1  0.035  0.000  0.500-  21 2.07  21 2.07  22 2.07  22 2.07   2 2.87   2 2.87
   2  0.073  0.500  0.500-  26 2.09  26 2.09  25 2.09  25 2.09  21 2.16  22 2.16   1 2.87   1 2.87
                             3 2.94   3 2.94
   3  0.112  0.000  0.500-  30 2.09  30 2.09  29 2.09  29 2.09  26 2.10  25 2.10   4 2.92   4 2.92
                             2 2.94   2 2.94
   4  0.151  0.500  0.500-  30 2.09  34 2.09  34 2.09  29 2.09  33 2.09  33 2.09   5 2.92   5 2.92
                             3 2.92   3 2.92
   5  0.190  0.000  0.500-  37 2.09  37 2.09  38 2.09  38 2.09  34 2.09  33 2.09   6 2.91   6 2.91
                             4 2.92   4 2.92
   6  0.229  0.500  0.500-  42 2.09  42 2.09  41 2.09  41 2.09  38 2.09  37 2.09   7 2.91   7 2.91
                             5 2.91   5 2.91
   7  0.267  0.000  0.500-  46 2.09  46 2.09  45 2.09  45 2.09  42 2.09  41 2.09   8 2.91   8 2.91
                             6 2.91   6 2.91
   8  0.306  0.500  0.500-  50 2.09  50 2.09  49 2.09  49 2.09  46 2.09  45 2.09   9 2.91   9 2.91
                             7 2.91   7 2.91
   9  0.345  0.000  0.500-  53 2.09  53 2.09  54 2.09  54 2.09  50 2.09  49 2.09  10 2.91  10 2.91
                             8 2.91   8 2.91
  10  0.384  0.500  0.500-  57 2.09  57 2.09  58 2.09  58 2.09  53 2.09  54 2.09   9 2.91   9 2.91
                            11 2.91  11 2.91
  11  0.422  0.000  0.500-  62 2.09  62 2.09  61 2.09  61 2.09  57 2.09  58 2.09  10 2.91  10 2.91
                            12 2.91  12 2.91
  12  0.461  0.500  0.500-  66 2.09  66 2.09  65 2.09  65 2.09  61 2.09  62 2.09  11 2.91  11 2.91
                            13 2.91  13 2.91
  13  0.500  0.000  0.500-  70 2.09  70 2.09  69 2.09  69 2.09  65 2.09  66 2.09  12 2.91  12 2.91
                            14 2.91  14 2.91
  14  0.539  0.500  0.500-  73 2.09  73 2.09  74 2.09  74 2.09  69 2.09  70 2.09  15 2.91  15 2.91
                            13 2.91  13 2.91
  15  0.578  0.000  0.500-  77 2.09  77 2.09  78 2.09  78 2.09  74 2.09  73 2.09  14 2.91  14 2.91
                            16 2.91  16 2.91
  16  0.616  0.500  0.500-  81 2.09  81 2.09  82 2.09  82 2.09  78 2.09  77 2.09  15 2.91  15 2.91
                            17 2.91  17 2.91
  17  0.655  0.000  0.500-  86 2.09  86 2.09  85 2.09  85 2.09  81 2.09  82 2.09  16 2.91  16 2.91
                            18 2.91  18 2.91
  18  0.694  0.500  0.500-  90 2.09  90 2.09  89 2.09  89 2.09  85 2.09  86 2.09  17 2.91  17 2.91
                            19 2.92  19 2.92
  19  0.733  0.000  0.500-  93 2.08  93 2.08  94 2.08  94 2.08  90 2.09  89 2.09  18 2.92  18 2.92
                            20 2.98  20 2.98
  20  0.773  0.500  0.500-  98 2.03  98 2.03  97 2.03  97 2.03  94 2.14  93 2.14  19 2.98  19 2.98

  21  0.046  0.500  0.555- 101 1.77   1 2.07   1 2.07   2 2.16
  22  0.046  0.500  0.445- 102 1.77   1 2.07   1 2.07   2 2.16
  23  0.061  0.000  0.348- 104 1.74 102 1.77 102 1.77
  24  0.061  0.000  0.652- 103 1.74 101 1.77 101 1.77
  25  0.086  0.000  0.554- 103 1.76   2 2.09   2 2.09   3 2.10
  26  0.086  0.000  0.446- 104 1.76   2 2.09   2 2.09   3 2.10
  27  0.100  0.500  0.348- 106 1.75 104 1.75 104 1.75
  28  0.100  0.500  0.651- 105 1.75 103 1.75 103 1.75
  29  0.125  0.500  0.554- 105 1.75   3 2.09   3 2.09   4 2.09
  30  0.125  0.500  0.446- 106 1.75   3 2.09   3 2.09   4 2.09
  31  0.138  0.000  0.348- 106 1.75 106 1.75 108 1.75
  32  0.138  0.000  0.652- 105 1.75 105 1.75 107 1.75
  33  0.164  0.000  0.554- 107 1.75   4 2.09   4 2.09   5 2.09
  34  0.164  0.000  0.446- 108 1.75   4 2.09   4 2.09   5 2.09
  35  0.177  0.500  0.348- 108 1.75 108 1.75 110 1.76
  36  0.177  0.500  0.652- 107 1.75 107 1.75 109 1.76
  37  0.203  0.500  0.554- 109 1.75   5 2.09   5 2.09   6 2.09
  38  0.203  0.500  0.446- 110 1.75   5 2.09   5 2.09   6 2.09
  39  0.216  0.000  0.348- 110 1.75 110 1.75 112 1.76
  40  0.216  0.000  0.652- 109 1.75 109 1.75 111 1.76
  41  0.242  0.000  0.554- 111 1.75   6 2.09   6 2.09   7 2.09
  42  0.242  0.000  0.446- 112 1.75   6 2.09   6 2.09   7 2.09
  43  0.255  0.500  0.348- 112 1.75 112 1.75 114 1.76
  44  0.255  0.500  0.652- 111 1.75 111 1.75 113 1.76
  45  0.280  0.500  0.554- 113 1.75   7 2.09   7 2.09   8 2.09
  46  0.280  0.500  0.446- 114 1.75   7 2.09   7 2.09   8 2.09
  47  0.293  0.000  0.348- 114 1.75 114 1.75 116 1.76
  48  0.293  0.000  0.652- 113 1.75 113 1.75 115 1.76
  49  0.319  0.000  0.554- 115 1.75   8 2.09   8 2.09   9 2.09
  50  0.319  0.000  0.446- 116 1.75   8 2.09   8 2.09   9 2.09
  51  0.332  0.500  0.348- 116 1.75 116 1.75 118 1.76
  52  0.332  0.500  0.652- 115 1.75 115 1.75 117 1.76
  53  0.358  0.500  0.554- 117 1.75   9 2.09   9 2.09  10 2.09
  54  0.358  0.500  0.446- 118 1.75   9 2.09   9 2.09  10 2.09
  55  0.371  0.000  0.348- 118 1.75 118 1.75 120 1.76
  56  0.371  0.000  0.652- 117 1.75 117 1.75 119 1.76
  57  0.397  0.000  0.554- 119 1.75  10 2.09  10 2.09  11 2.09
  58  0.397  0.000  0.446- 120 1.75  10 2.09  10 2.09  11 2.09
  59  0.410  0.500  0.348- 120 1.75 120 1.75 122 1.76
  60  0.410  0.500  0.652- 119 1.75 119 1.75 121 1.76
  61  0.435  0.500  0.554- 121 1.75  11 2.09  11 2.09  12 2.09
  62  0.435  0.500  0.446- 122 1.75  11 2.09  11 2.09  12 2.09
  63  0.448  0.000  0.348- 122 1.75 122 1.75 124 1.76
  64  0.448  0.000  0.652- 121 1.75 121 1.75 123 1.76
  65  0.474  0.000  0.554- 123 1.75  12 2.09  12 2.09  13 2.09
  66  0.474  0.000  0.446- 124 1.75  12 2.09  12 2.09  13 2.09
  67  0.487  0.500  0.348- 124 1.75 124 1.75 126 1.76
  68  0.487  0.500  0.652- 123 1.75 123 1.75 125 1.76
  69  0.513  0.500  0.554- 125 1.75  13 2.09  13 2.09  14 2.09
  70  0.513  0.500  0.446- 126 1.75  13 2.09  13 2.09  14 2.09
  71  0.526  0.000  0.348- 126 1.75 126 1.75 128 1.76
  72  0.526  0.000  0.652- 125 1.75 125 1.75 127 1.76
  73  0.552  0.000  0.554- 127 1.75  14 2.09  14 2.09  15 2.09
  74  0.552  0.000  0.446- 128 1.75  14 2.09  14 2.09  15 2.09
  75  0.565  0.500  0.348- 128 1.75 128 1.75 130 1.76
  76  0.565  0.500  0.652- 127 1.75 127 1.75 129 1.76
  77  0.590  0.500  0.554- 129 1.75  15 2.09  15 2.09  16 2.09
  78  0.590  0.500  0.446- 130 1.75  15 2.09  15 2.09  16 2.09
  79  0.603  0.000  0.348- 130 1.75 130 1.75 132 1.76
  80  0.603  0.000  0.652- 129 1.75 129 1.75 131 1.76
  81  0.629  0.000  0.554- 131 1.75  16 2.09  16 2.09  17 2.09
  82  0.629  0.000  0.446- 132 1.75  16 2.09  16 2.09  17 2.09
  83  0.642  0.500  0.348- 132 1.75 132 1.75 134 1.76
  84  0.642  0.500  0.652- 131 1.75 131 1.75 133 1.76
  85  0.668  0.500  0.554- 133 1.75  17 2.09  17 2.09  18 2.09
  86  0.668  0.500  0.446- 134 1.75  17 2.09  17 2.09  18 2.09
  87  0.681  0.000  0.348- 134 1.75 134 1.75 136 1.76
  88  0.681  0.000  0.652- 133 1.75 133 1.75 135 1.76
  89  0.707  0.000  0.554- 135 1.76  18 2.09  18 2.09  19 2.09
  90  0.707  0.000  0.446- 136 1.76  18 2.09  18 2.09  19 2.09
  91  0.720  0.500  0.349- 136 1.74 136 1.74 138 1.77
  92  0.720  0.500  0.651- 135 1.74 135 1.74 137 1.77
  93  0.746  0.500  0.553- 137 1.78  19 2.08  19 2.08  20 2.14
  94  0.746  0.500  0.447- 138 1.78  19 2.08  19 2.08  20 2.14
  95  0.758  0.000  0.348- 138 1.73 138 1.73 140 1.82
  96  0.758  0.000  0.652- 137 1.73 137 1.73 139 1.82
  97  0.783  0.000  0.555- 139 1.78  20 2.03  20 2.03
  98  0.783  0.000  0.446- 140 1.78  20 2.03  20 2.03
  99  0.796  0.500  0.348- 140 1.69 140 1.69
 100  0.796  0.500  0.653- 139 1.69 139 1.69
 101  0.047  0.500  0.632-  24 1.77  24 1.77  21 1.77 103 2.94 103 2.94
 102  0.047  0.500  0.368-  23 1.77  23 1.77  22 1.77 104 2.94 104 2.94
 103  0.087  0.000  0.630-  24 1.74  28 1.75  28 1.75  25 1.76 105 2.91 105 2.91 101 2.94 101 2.94

 104  0.087  0.000  0.370-  23 1.74  27 1.75  27 1.75  26 1.76 106 2.91 106 2.91 102 2.94 102 2.94

 105  0.125  0.500  0.630-  28 1.75  29 1.75  32 1.75  32 1.75 107 2.91 107 2.91 103 2.91 103 2.91

 106  0.125  0.500  0.370-  27 1.75  30 1.75  31 1.75  31 1.75 108 2.91 108 2.91 104 2.91 104 2.91

 107  0.164  0.000  0.630-  33 1.75  36 1.75  36 1.75  32 1.75 109 2.91 109 2.91 105 2.91 105 2.91

 108  0.164  0.000  0.370-  34 1.75  35 1.75  35 1.75  31 1.75 110 2.91 110 2.91 106 2.91 106 2.91

 109  0.203  0.500  0.630-  37 1.75  40 1.75  40 1.75  36 1.76 111 2.91 111 2.91 107 2.91 107 2.91

 110  0.203  0.500  0.370-  38 1.75  39 1.75  39 1.75  35 1.76 112 2.91 112 2.91 108 2.91 108 2.91

 111  0.242  0.000  0.630-  41 1.75  44 1.75  44 1.75  40 1.76 113 2.91 113 2.91 109 2.91 109 2.91

 112  0.242  0.000  0.370-  42 1.75  43 1.75  43 1.75  39 1.76 114 2.91 114 2.91 110 2.91 110 2.91

 113  0.280  0.500  0.630-  45 1.75  48 1.75  48 1.75  44 1.76 115 2.91 115 2.91 111 2.91 111 2.91

 114  0.280  0.500  0.370-  46 1.75  47 1.75  47 1.75  43 1.76 116 2.91 116 2.91 112 2.91 112 2.91

 115  0.319  0.000  0.630-  49 1.75  52 1.75  52 1.75  48 1.76 113 2.91 113 2.91 117 2.91 117 2.91

 116  0.319  0.000  0.370-  50 1.75  51 1.75  51 1.75  47 1.76 114 2.91 114 2.91 118 2.91 118 2.91

 117  0.358  0.500  0.630-  53 1.75  56 1.75  56 1.75  52 1.76 115 2.91 115 2.91 119 2.91 119 2.91

 118  0.358  0.500  0.370-  54 1.75  55 1.75  55 1.75  51 1.76 116 2.91 116 2.91 120 2.91 120 2.91

 119  0.397  0.000  0.630-  57 1.75  60 1.75  60 1.75  56 1.76 117 2.91 117 2.91 121 2.91 121 2.91

 120  0.397  0.000  0.370-  58 1.75  59 1.75  59 1.75  55 1.76 118 2.91 118 2.91 122 2.91 122 2.91

 121  0.435  0.500  0.630-  61 1.75  64 1.75  64 1.75  60 1.76 119 2.91 119 2.91 123 2.91 123 2.91

 122  0.435  0.500  0.370-  62 1.75  63 1.75  63 1.75  59 1.76 120 2.91 120 2.91 124 2.91 124 2.91

 123  0.474  0.000  0.630-  65 1.75  68 1.75  68 1.75  64 1.76 121 2.91 121 2.91 125 2.91 125 2.91

 124  0.474  0.000  0.370-  66 1.75  67 1.75  67 1.75  63 1.76 122 2.91 122 2.91 126 2.91 126 2.91

 125  0.513  0.500  0.630-  69 1.75  72 1.75  72 1.75  68 1.76 123 2.91 123 2.91 127 2.91 127 2.91

 126  0.513  0.500  0.370-  70 1.75  71 1.75  71 1.75  67 1.76 124 2.91 124 2.91 128 2.91 128 2.91

 127  0.552  0.000  0.630-  73 1.75  76 1.75  76 1.75  72 1.76 125 2.91 125 2.91 129 2.91 129 2.91

 128  0.552  0.000  0.370-  74 1.75  75 1.75  75 1.75  71 1.76 126 2.91 126 2.91 130 2.91 130 2.91

 129  0.591  0.500  0.630-  77 1.75  80 1.75  80 1.75  76 1.76 127 2.91 127 2.91 131 2.91 131 2.91

 130  0.591  0.500  0.370-  78 1.75  79 1.75  79 1.75  75 1.76 128 2.91 128 2.91 132 2.91 132 2.91

 131  0.629  0.000  0.630-  81 1.75  84 1.75  84 1.75  80 1.76 129 2.91 129 2.91 133 2.91 133 2.91

 132  0.629  0.000  0.370-  82 1.75  83 1.75  83 1.75  79 1.76 130 2.91 130 2.91 134 2.91 134 2.91

 133  0.668  0.500  0.630-  88 1.75  88 1.75  85 1.75  84 1.76 131 2.91 131 2.91 135 2.91 135 2.91

 134  0.668  0.500  0.370-  87 1.75  87 1.75  86 1.75  83 1.76 132 2.91 132 2.91 136 2.91 136 2.91

 135  0.707  0.000  0.630-  92 1.74  92 1.74  89 1.76  88 1.76 133 2.91 133 2.91 137 2.92 137 2.92

 136  0.707  0.000  0.370-  91 1.74  91 1.74  90 1.76  87 1.76 134 2.91 134 2.91 138 2.92 138 2.92

 137  0.746  0.500  0.631-  96 1.73  96 1.73  92 1.77  93 1.78 135 2.92 135 2.92 139 2.93 139 2.93

 138  0.746  0.500  0.370-  95 1.73  95 1.73  91 1.77  94 1.78 136 2.92 136 2.92 140 2.93 140 2.93

 139  0.785  0.000  0.632- 100 1.69 100 1.69  97 1.78  96 1.82 137 2.93 137 2.93
 140  0.785  0.000  0.369-  99 1.69  99 1.69  98 1.78  95 1.82 138 2.93 138 2.93
 
  LATTYP: Found a simple orthorhombic cell.
 ALAT       =     2.9100000858
 B/A-ratio  =     7.9037798357
 C/A-ratio  =    22.3367691009
  
  Lattice vectors:
  
 A1 = (   0.0000000000,   2.9100000858,   0.0000000000)
 A2 = (   0.0000000000,   0.0000000000, -23.0000000000)
 A3 = ( -65.0000000000,   0.0000000000,   0.0000000000)


Analysis of symmetry for initial positions (statically):
=====================================================================
 Subroutine PRICEL returns:
 Original cell was already a primitive cell.
 

 Routine SETGRP: Setting up the symmetry group for a 
 simple orthorhombic supercell.


 Subroutine GETGRP returns: Found  2 space group operations
 (whereof  2 operations were pure point group operations)
 out of a pool of  8 trial point group operations.


The static configuration has the point symmetry C_1h.


Analysis of symmetry for dynamics (positions and initial velocities):
=====================================================================
 Subroutine PRICEL returns:
 Original cell was already a primitive cell.
 

 Routine SETGRP: Setting up the symmetry group for a 
 simple orthorhombic supercell.


 Subroutine GETGRP returns: Found  2 space group operations
 (whereof  2 operations were pure point group operations)
 out of a pool of  8 trial point group operations.


The dynamic configuration has the point symmetry C_1h.


Analysis of structural, dynamic, and magnetic symmetry:
=====================================================================
 Subroutine PRICEL returns:
 Original cell was already a primitive cell.
 

 Routine SETGRP: Setting up the symmetry group for a 
 simple orthorhombic supercell.


 Subroutine GETGRP returns: Found  2 space group operations
 (whereof  2 operations were pure point group operations)
 out of a pool of  8 trial point group operations.


The magnetic configuration has the point symmetry C_1h.


 Subroutine INISYM returns: Found  2 space group operations
 (whereof  2 operations are pure point group operations),
 and found     1 'primitive' translations

 
 
 KPOINTS: Automatic generation                    

Automatic generation of k-mesh.
Space group operators:
 irot       det(A)        alpha          n_x          n_y          n_z        tau_x        tau_y        tau_z
    1     1.000000     0.000000     1.000000     0.000000     0.000000     0.000000     0.000000     0.000000
    2    -1.000000   180.000000     0.000000     1.000000     0.000000     0.000000     0.000000     0.000000
 
 Subroutine IBZKPT returns following result:
 ===========================================
 
 Found      9 irreducible k-points:
 
 Following reciprocal coordinates:
            Coordinates               Weight
  0.000000  0.000000  0.000000      1.000000
  0.000000  0.058824  0.000000      2.000000
  0.000000  0.117647  0.000000      2.000000
  0.000000  0.176471  0.000000      2.000000
  0.000000  0.235294  0.000000      2.000000
  0.000000  0.294118  0.000000      2.000000
  0.000000  0.352941  0.000000      2.000000
  0.000000  0.411765  0.000000      2.000000
  0.000000  0.470588  0.000000      2.000000
 
 Following cartesian coordinates:
            Coordinates               Weight
  0.000000  0.000000  0.000000      1.000000
  0.000000  0.020214  0.000000      2.000000
  0.000000  0.040429  0.000000      2.000000
  0.000000  0.060643  0.000000      2.000000
  0.000000  0.080857  0.000000      2.000000
  0.000000  0.101071  0.000000      2.000000
  0.000000  0.121286  0.000000      2.000000
  0.000000  0.141500  0.000000      2.000000
  0.000000  0.161714  0.000000      2.000000
 


--------------------------------------------------------------------------------------------------------




 Dimension of arrays:
   k-points           NKPTS =      9   k-points in BZ     NKDIM =      9   number of bands    NBANDS=    576
   number of dos      NEDOS =   3001   number of ions     NIONS =    140
   non local maximal  LDIM  =      6   non local SUM 2l+1 LMDIM =     18
   total plane-waves  NPLWV = ******
   max r-space proj   IRMAX =   9994   max aug-charges    IRDMAX=  25210
   dimension x,y,z NGX =   540 NGY =   24 NGZ =  192
   dimension x,y,z NGXF=  1080 NGYF=   48 NGZF=  384
   support grid    NGXF=  1080 NGYF=   48 NGZF=  384
   ions per type =              20  80  40
 NGX,Y,Z   is equivalent  to a cutoff of  13.81, 13.71, 13.88 a.u.
 NGXF,Y,Z  is equivalent  to a cutoff of  27.62, 27.42, 27.76 a.u.


 I would recommend the setting:
   dimension x,y,z NGX =   519 NGY =   23 NGZ =  184
 SYSTEM =  unknown system                          
 POSCAR =  CONTCAR40                               

 Startparameter for this run:
   NWRITE =      2    write-flag & timer
   PREC   = accura    normal or accurate (medium, high low for compatibility)
   ISTART =      0    job   : 0-new  1-cont  2-samecut
   ICHARG =      2    charge: 1-file 2-atom 10-const
   ISPIN  =      2    spin polarized calculation?
   LNONCOLLINEAR =      F non collinear calculations
   LSORBIT =      F    spin-orbit coupling
   INIWAV =      1    electr: 0-lowe 1-rand  2-diag
   LASPH  =      F    aspherical Exc in radial PAW
   METAGGA=      F    non-selfconsistent MetaGGA calc.

 Electronic Relaxation 1
   ENCUT  =  600.0 eV  44.10 Ry    6.64 a.u. 129.82  5.81 45.94*2*pi/ulx,y,z
   ENINI  =  600.0     initial cutoff
   ENAUG  =  627.1 eV  augmentation charge cutoff
   NELM   =    100;   NELMIN=  2; NELMDL= -5     # of ELM steps 
   EDIFF  = 0.1E-04   stopping-criterion for ELM
   LREAL  =      T    real-space projection
   NLSPLINE    = F    spline interpolate recip. space projectors
   LCOMPAT=      F    compatible to vasp.4.4
   GGA_COMPAT  = T    GGA compatible to vasp.4.4-vasp.4.6
   LMAXPAW     = -100 max onsite density
   LMAXMIX     =    2 max onsite mixed and CHGCAR
   VOSKOWN=      0    Vosko Wilk Nusair interpolation
   ROPT   =   -0.00025  -0.00025  -0.00025
 Ionic relaxation
   EDIFFG = -.1E-01   stopping-criterion for IOM
   NSW    =      0    number of steps for IOM
   NBLOCK =      1;   KBLOCK =      1    inner block; outer block 
   IBRION =     -1    ionic relax: 0-MD 1-quasi-New 2-CG
   NFREE  =      0    steps in history (QN), initial steepest desc. (CG)
   ISIF   =      2    stress and relaxation
   IWAVPR =     10    prediction:  0-non 1-charg 2-wave 3-comb
   ISYM   =      2    0-nonsym 1-usesym 2-fastsym
   LCORR  =      T    Harris-Foulkes like correction to forces

   POTIM  = 0.5000    time-step for ionic-motion
   TEIN   =    0.0    initial temperature
   TEBEG  =    0.0;   TEEND  =   0.0 temperature during run
   SMASS  =  -3.00    Nose mass-parameter (am)
   estimated Nose-frequenzy (Omega)   =  0.10E-29 period in steps =****** mass=  -0.966E-25a.u.
   SCALEE = 1.0000    scale energy and forces
   NPACO  =    256;   APACO  = 16.0  distance and # of slots for P.C.
   PSTRESS=    0.0 pullay stress

  Mass of Ions in am
   POMASS =  95.94 14.00 28.09
  Ionic Valenz
   ZVAL   =  14.00  5.00  4.00
  Atomic Wigner-Seitz radii
   RWIGS  =  -1.00 -1.00 -1.00
  virtual crystal weights 
   VCA    =   1.00  1.00  1.00
   NELECT =     840.0000    total number of electrons
   NUPDOWN=      -1.0000    fix difference up-down

 DOS related values:
   EMIN   =  10.00;   EMAX   =-10.00  energy-range for DOS
   EFERMI =   0.00
   ISMEAR =     0;   SIGMA  =   0.02  broadening in eV -4-tet -1-fermi 0-gaus

 Electronic relaxation 2 (details)
   IALGO  =     38    algorithm
   LDIAG  =      T    sub-space diagonalisation (order eigenvalues)
   LSUBROT=      F    optimize rotation matrix (better conditioning)
   TURBO    =      0    0=normal 1=particle mesh
   IRESTART =      0    0=no restart 2=restart with 2 vectors
   NREBOOT  =      0    no. of reboots
   NMIN     =      0    reboot dimension
   EREF     =   0.00    reference energy to select bands
   IMIX   =      4    mixing-type and parameters
     AMIX     =   0.40;   BMIX     =  1.00
     AMIX_MAG =   1.60;   BMIX_MAG =  1.00
     AMIN     =   0.01
     WC   =   100.;   INIMIX=   1;  MIXPRE=   1;  MAXMIX= -45

 Intra band minimization:
   WEIMIN = 0.0000     energy-eigenvalue tresh-hold
   EBREAK =  0.43E-08  absolut break condition
   DEPER  =   0.30     relativ break condition  

   TIME   =   0.40     timestep for ELM

  volume/ion in A,a.u.               =      31.07       209.70
  Fermi-wavevector in a.u.,A,eV,Ry     =   0.946215  1.788087 12.181608  0.895323
  Thomas-Fermi vector in A             =   2.074191
 
 Write flags
   LWAVE  =      T    write WAVECAR
   LCHARG =      T    write CHGCAR
   LVTOT  =      F    write LOCPOT, total local potential
   LVHAR  =      F    write LOCPOT, Hartree potential only
   LELF   =      F    write electronic localiz. function (ELF)
   LORBIT =     11    0 simple, 1 ext, 2 COOP (PROOUT)


 Dipole corrections
   LMONO  =      F    monopole corrections only (constant potential shift)
   LDIPOL =      F    correct potential (dipole corrections)
   IDIPOL =      0    1-x, 2-y, 3-z, 4-all directions 
   EPSILON=  1.0000000 bulk dielectric constant

 Exchange correlation treatment:
   GGA     =    --    GGA type
   LEXCH   =     8    internal setting for exchange type
   VOSKOWN=      0    Vosko Wilk Nusair interpolation
   LHFCALC =     F    Hartree Fock is set to
   LHFONE  =     F    Hartree Fock one center treatment
   AEXX    =    0.0000 exact exchange contribution

 Linear response parameters
   LEPSILON=     F    determine dielectric tensor
   LRPA    =     F    only Hartree local field effects (RPA)
   LNABLA  =     F    use nabla operator in PAW spheres
   LVEL    =     F    velocity operator in full k-point grid
   LINTERFAST=   F  fast interpolation
   KINTER  =     0    interpolate to denser k-point grid
   CSHIFT  =0.1000    complex shift for real part using Kramers Kronig
   OMEGAMAX=  -1.0    maximum frequency
   DEG_THRESHOLD= 0.2000000E-02 threshold for treating states as degnerate
   RTIME   =    0.100 relaxation time in fs

 Orbital magnetization related:
   ORBITALMAG=     F  switch on orbital magnetization
   LCHIMAG   =     F  perturbation theory with respect to B field
   DQ        =  0.001000  dq finite difference perturbation B field



--------------------------------------------------------------------------------------------------------


 Static calculation
 charge density and potential will be updated during run
 spin polarized calculation
 Variant of blocked Davidson
 Davidson routine will perform the subspace rotation
 perform sub-space diagonalisation
    after iterative eigenvector-optimisation
 modified Broyden-mixing scheme, WC =      100.0
 initial mixing is a Kerker type mixing with AMIX =  0.4000 and BMIX =      1.0000
 Hartree-type preconditioning will be used
 using additional bands          156
 real space projection scheme for non local part
 use partial core corrections
 calculate Harris-corrections to forces 
   (improved forces if not selfconsistent)
 use gradient corrections 
 use of overlap-Matrix (Vanderbilt PP)
 Gauss-broadening in eV      SIGMA  =   0.02


--------------------------------------------------------------------------------------------------------


  energy-cutoff  :      600.00
  volume of cell :     4350.45
      direct lattice vectors                 reciprocal lattice vectors
    65.000000000  0.000000000  0.000000000     0.015384615  0.000000000  0.000000000
     0.000000000  2.910000086  0.000000000     0.000000000  0.343642602  0.000000000
     0.000000000  0.000000000 23.000000000     0.000000000  0.000000000  0.043478261

  length of vectors
    65.000000000  2.910000086 23.000000000     0.015384615  0.343642602  0.043478261


 
 k-points in units of 2pi/SCALE and weight: Automatic generation                    
   0.00000000  0.00000000  0.00000000       0.059
   0.00000000  0.02021427  0.00000000       0.118
   0.00000000  0.04042854  0.00000000       0.118
   0.00000000  0.06064281  0.00000000       0.118
   0.00000000  0.08085708  0.00000000       0.118
   0.00000000  0.10107135  0.00000000       0.118
   0.00000000  0.12128562  0.00000000       0.118
   0.00000000  0.14149989  0.00000000       0.118
   0.00000000  0.16171417  0.00000000       0.118
 
 k-points in reciprocal lattice and weights: Automatic generation                    
   0.00000000  0.00000000  0.00000000       0.059
   0.00000000  0.05882353  0.00000000       0.118
   0.00000000  0.11764706  0.00000000       0.118
   0.00000000  0.17647059  0.00000000       0.118
   0.00000000  0.23529412  0.00000000       0.118
   0.00000000  0.29411765  0.00000000       0.118
   0.00000000  0.35294118  0.00000000       0.118
   0.00000000  0.41176471  0.00000000       0.118
   0.00000000  0.47058824  0.00000000       0.118
 
 position of ions in fractional coordinates (direct lattice) 
   0.03461872  0.00000000  0.49991828
   0.07274041  0.50000000  0.49992057
   0.11203859  0.00000000  0.49992020
   0.15106291  0.50000000  0.49991874
   0.18993022  0.00000000  0.49991551
   0.22872881  0.50000000  0.49991683
   0.26749647  0.00000000  0.49991197
   0.30624912  0.50000000  0.49991064
   0.34499728  0.00000000  0.49991405
   0.38374387  0.50000000  0.49991841
   0.42249426  0.00000000  0.49992383
   0.46125086  0.50000000  0.49993867
   0.50001300  0.00000000  0.49995149
   0.53877648  0.50000000  0.49995786
   0.57753804  0.00000000  0.49994879
   0.61630333  0.50000000  0.49993495
   0.65507613  0.00000000  0.49995709
   0.69390674  0.50000000  0.49999594
   0.73279611  0.00000000  0.50003061
   0.77272925  0.50000000  0.50003320
   0.04586817  0.50000000  0.55529726
   0.04586862  0.50000000  0.44453965
   0.06112164  0.00000000  0.34758838
   0.06111844  0.00000000  0.65225359
   0.08597014  0.00000000  0.55355981
   0.08597098  0.00000000  0.44628568
   0.09967271  0.50000000  0.34847663
   0.09967059  0.50000000  0.65136485
   0.12512915  0.50000000  0.55383316
   0.12512926  0.50000000  0.44601034
   0.13835897  0.00000000  0.34799692
   0.13835751  0.00000000  0.65184564
   0.16404411  0.00000000  0.55405536
   0.16404425  0.00000000  0.44578516
   0.17709817  0.50000000  0.34777547
   0.17709666  0.50000000  0.65206127
   0.20286707  0.50000000  0.55411493
   0.20286803  0.50000000  0.44571707
   0.21584541  0.00000000  0.34769471
   0.21584290  0.00000000  0.65213433
   0.24164397  0.00000000  0.55414410
   0.24164328  0.00000000  0.44569312
   0.25459224  0.50000000  0.34766534
   0.25459136  0.50000000  0.65216670
   0.28040089  0.50000000  0.55415292
   0.28040073  0.50000000  0.44567497
   0.29333734  0.00000000  0.34763444
   0.29333482  0.00000000  0.65219048
   0.31914973  0.00000000  0.55415672
   0.31915087  0.00000000  0.44566824
   0.33208433  0.50000000  0.34763187
   0.33208035  0.50000000  0.65219294
   0.35789693  0.50000000  0.55415570
   0.35789772  0.50000000  0.44567111
   0.37083181  0.00000000  0.34764327
   0.37082828  0.00000000  0.65218606
   0.39664312  0.00000000  0.55415415
   0.39664454  0.00000000  0.44568183
   0.40958140  0.50000000  0.34766620
   0.40958128  0.50000000  0.65217529
   0.43539480  0.50000000  0.55416000
   0.43539802  0.50000000  0.44569526
   0.44834197  0.00000000  0.34768142
   0.44833860  0.00000000  0.65217989
   0.47415552  0.00000000  0.55417427
   0.47415786  0.00000000  0.44571769
   0.48710820  0.50000000  0.34771204
   0.48710331  0.50000000  0.65219319
   0.51292112  0.50000000  0.55418355
   0.51292077  0.50000000  0.44572789
   0.52587752  0.00000000  0.34772111
   0.52587546  0.00000000  0.65219893
   0.55168395  0.00000000  0.55418555
   0.55168421  0.00000000  0.44572990
   0.56465216  0.50000000  0.34772330
   0.56464519  0.50000000  0.65218676
   0.59044635  0.50000000  0.55415482
   0.59044928  0.50000000  0.44573312
   0.60343693  0.00000000  0.34774504
   0.60341963  0.00000000  0.65213923
   0.62921089  0.00000000  0.55410461
   0.62921670  0.00000000  0.44576709
   0.64222207  0.50000000  0.34784623
   0.64219467  0.50000000  0.65204491
   0.66798377  0.50000000  0.55402501
   0.66799325  0.50000000  0.44592276
   0.68099358  0.00000000  0.34815670
   0.68096087  0.00000000  0.65181059
   0.70683429  0.00000000  0.55374753
   0.70684949  0.00000000  0.44628263
   0.71969684  0.50000000  0.34891349
   0.71966063  0.50000000  0.65113370
   0.74577103  0.50000000  0.55320362
   0.74578479  0.50000000  0.44687862
   0.75812705  0.00000000  0.34835452
   0.75808731  0.00000000  0.65172988
   0.78304259  0.00000000  0.55456631
   0.78305405  0.00000000  0.44551855
   0.79619616  0.50000000  0.34758603
   0.79614773  0.50000000  0.65252156
   0.04738250  0.50000000  0.63230174
   0.04738617  0.50000000  0.36753500
   0.08666338  0.00000000  0.62988046
   0.08666677  0.00000000  0.36996170
   0.12546302  0.50000000  0.62988493
   0.12546445  0.50000000  0.36995441
   0.16421918  0.00000000  0.63004392
   0.16422111  0.00000000  0.36979253
   0.20296990  0.50000000  0.63009351
   0.20297218  0.50000000  0.36973052
   0.24171926  0.00000000  0.63012421
   0.24172137  0.00000000  0.36970985
   0.28046650  0.50000000  0.63013604
   0.28046822  0.50000000  0.36968507
   0.31920970  0.00000000  0.63014389
   0.31921215  0.00000000  0.36967794
   0.35795476  0.50000000  0.63014178
   0.35795773  0.50000000  0.36969037
   0.39670598  0.00000000  0.63013979
   0.39670730  0.00000000  0.36970450
   0.43546231  0.50000000  0.63013940
   0.43546303  0.50000000  0.36971159
   0.47422230  0.00000000  0.63015910
   0.47422499  0.00000000  0.36973306
   0.51299055  0.50000000  0.63017329
   0.51299296  0.50000000  0.36974240
   0.55176246  0.00000000  0.63018178
   0.55176624  0.00000000  0.36973988
   0.59053526  0.50000000  0.63016286
   0.59054904  0.50000000  0.36972786
   0.62931600  0.00000000  0.63014094
   0.62933979  0.00000000  0.36972829
   0.66811739  0.50000000  0.63013226
   0.66814378  0.50000000  0.36980841
   0.70695237  0.00000000  0.63008175
   0.70698309  0.00000000  0.36994716
   0.74592574  0.50000000  0.63052806
   0.74595898  0.50000000  0.36954825
   0.78509725  0.00000000  0.63156029
   0.78513756  0.00000000  0.36853073
 
 position of ions in cartesian coordinates  (Angst):
   2.25021687  0.00000000 11.49812047
   4.72812656  1.45500004 11.49817303
   7.28250837  0.00000000 11.49816470
   9.81908905  1.45500004 11.49813105
  12.34546399  0.00000000 11.49805668
  14.86737279  1.45500004 11.49808715
  17.38727054  0.00000000 11.49797542
  19.90619297  1.45500004 11.49794471
  22.42482332  0.00000000 11.49802308
  24.94335164  1.45500004 11.49812351
  27.46212661  0.00000000 11.49824816
  29.98130566  1.45500004 11.49858932
  32.50084475  0.00000000 11.49888424
  35.02047116  1.45500004 11.49903067
  37.53997251  0.00000000 11.49882213
  40.05971663  1.45500004 11.49850378
  42.57994865  0.00000000 11.49901299
  45.10393829  1.45500004 11.49990665
  47.63174747  0.00000000 11.50070400
  50.22740154  1.45500004 11.50076349
   2.98143101  1.45500004 12.77183690
   2.98146057  1.45500004 10.22441199
   3.97290666  0.00000000  7.99453270
   3.97269870  0.00000000 15.00183248
   5.58805917  0.00000000 12.73187561
   5.58811369  0.00000000 10.26457074
   6.47872604  1.45500004  8.01496241
   6.47858827  1.45500004 14.98139150
   8.13339507  1.45500004 12.73816267
   8.13340179  1.45500004 10.25823792
   8.99333274  0.00000000  8.00392912
   8.99323801  0.00000000 14.99244973
  10.66286716  0.00000000 12.74327338
  10.66287645  0.00000000 10.25305876
  11.51138086  1.45500004  7.99883575
  11.51128275  1.45500004 14.99740931
  13.18635923  1.45500004 12.74464330
  13.18642225  1.45500004 10.25149270
  14.02995147  0.00000000  7.99697839
  14.02978865  0.00000000 14.99908955
  15.70685775  0.00000000 12.74531422
  15.70681289  0.00000000 10.25094183
  16.54849547  1.45500004  7.99630280
  16.54843842  1.45500004 14.99983400
  18.22605779  1.45500004 12.74551706
  18.22604730  1.45500004 10.25052434
  19.06692690  0.00000000  7.99559206
  19.06676352  0.00000000 15.00038099
  20.74473249  0.00000000 12.74560449
  20.74480624  0.00000000 10.25036961
  21.58548146  1.45500004  7.99553302
  21.58522278  1.45500004 15.00043763
  23.26330018  1.45500004 12.74558108
  23.26335153  1.45500004 10.25043546
  24.10406771  0.00000000  7.99579530
  24.10383818  0.00000000 15.00027932
  25.78180274  0.00000000 12.74554536
  25.78189485  0.00000000 10.25068214
  26.62279071  1.45500004  7.99632262
  26.62278295  1.45500004 15.00003168
  28.30066183  1.45500004 12.74567997
  28.30087132  1.45500004 10.25099092
  29.14222779  0.00000000  7.99667255
  29.14200905  0.00000000 15.00013749
  30.82010861  0.00000000 12.74600830
  30.82026069  0.00000000 10.25150691
  31.66203278  1.45500004  7.99737700
  31.66171530  1.45500004 15.00044327
  33.33987252  1.45500004 12.74622161
  33.33985022  1.45500004 10.25174150
  34.18203904  0.00000000  7.99758552
  34.18190458  0.00000000 15.00057549
  35.85945646  0.00000000 12.74626769
  35.85947358  0.00000000 10.25178770
  36.70239011  1.45500004  7.99763585
  36.70193735  1.45500004 15.00029548
  38.37901251  1.45500004 12.74556081
  38.37920314  1.45500004 10.25186173
  39.22340070  0.00000000  7.99813594
  39.22227623  0.00000000 14.99920234
  40.89870781  0.00000000 12.74440600
  40.89908572  0.00000000 10.25264309
  41.74443430  1.45500004  8.00046324
  41.74265330  1.45500004 14.99703282
  43.41894505  1.45500004 12.74257528
  43.41956148  1.45500004 10.25622351
  44.26458256  0.00000000  8.00760421
  44.26245662  0.00000000 14.99164365
  45.94422875  0.00000000 12.73619328
  45.94521703  0.00000000 10.26450057
  46.78029466  1.45500004  8.02501026
  46.77794064  1.45500004 14.97607516
  48.47511687  1.45500004 12.72368321
  48.47601159  1.45500004 10.27820816
  49.27825837  0.00000000  8.01215394
  49.27567524  0.00000000 14.98978726
  50.89776831  0.00000000 12.75502517
  50.89851356  0.00000000 10.24692666
  51.75275057  1.45500004  7.99447875
  51.74960260  1.45500004 15.00799594
   3.07986233  1.45500004 14.54294007
   3.08010109  1.45500004  8.45330491
   5.63311955  0.00000000 14.48725068
   5.63333982  0.00000000  8.50911919
   8.15509651  1.45500004 14.48735342
   8.15518911  1.45500004  8.50895151
  10.67424653  0.00000000 14.49101011
  10.67437190  0.00000000  8.50522830
  13.19304320  1.45500004 14.49215062
  13.19319200  1.45500004  8.50380200
  15.71175158  0.00000000 14.49285691
  15.71188893  0.00000000  8.50332650
  18.23032257  1.45500004 14.49312883
  18.23043413  1.45500004  8.50275654
  20.74863057  0.00000000 14.49330944
  20.74878949  0.00000000  8.50259251
  23.26705955  1.45500004 14.49326088
  23.26725236  1.45500004  8.50287842
  25.78588865  0.00000000 14.49321508
  25.78597480  0.00000000  8.50320351
  28.30505046  1.45500004 14.49320617
  28.30509726  1.45500004  8.50336654
  30.82444963  0.00000000 14.49365929
  30.82462463  0.00000000  8.50386035
  33.34438588  1.45500004 14.49398575
  33.34454262  1.45500004  8.50407514
  35.86455989  0.00000000 14.49418097
  35.86480542  0.00000000  8.50401718
  38.38479159  1.45500004 14.49374567
  38.38568739  1.45500004  8.50374073
  40.90554008  0.00000000 14.49324153
  40.90708609  0.00000000  8.50375059
  43.42763028  1.45500004 14.49304196
  43.42934543  1.45500004  8.50559339
  45.95190437  0.00000000 14.49188022
  45.95390092  0.00000000  8.50878459
  48.48517342  1.45500004 14.50214542
  48.48733358  1.45500004  8.49960979
  51.03132141  0.00000000 14.52588659
  51.03394170  0.00000000  8.47620671
 


--------------------------------------------------------------------------------------------------------


 k-point  1 :   0.0000 0.0000 0.0000  plane waves:  145155
 k-point  2 :   0.0000 0.0588 0.0000  plane waves:  145033
 k-point  3 :   0.0000 0.1176 0.0000  plane waves:  144993
 k-point  4 :   0.0000 0.1765 0.0000  plane waves:  144873
 k-point  5 :   0.0000 0.2353 0.0000  plane waves:  144992
 k-point  6 :   0.0000 0.2941 0.0000  plane waves:  145142
 k-point  7 :   0.0000 0.3529 0.0000  plane waves:  145310
 k-point  8 :   0.0000 0.4118 0.0000  plane waves:  145478
 k-point  9 :   0.0000 0.4706 0.0000  plane waves:  145526

 maximum and minimum number of plane-waves per node :    145526   144873

 maximum number of plane-waves:    145526
 maximum index in each direction: 
   IXMAX=  129   IYMAX=    5   IZMAX=   45
   IXMIN= -129   IYMIN=   -6   IZMIN=  -45

 NGX is ok and might be reduce to 518
 NGY is ok and might be reduce to  24
 NGZ is ok and might be reduce to 182

 serial   3D FFT for wavefunctions
 parallel 3D FFT for charge:
    minimum data exchange during FFTs selected (reduces bandwidth)


 total amount of memory used by VASP on root node   900032. kBytes
========================================================================

   base      :      30000. kBytes
   nonlr-proj:      96624. kBytes
   fftplans  :      24492. kBytes
   grid      :     236945. kBytes
   one-center:       4354. kBytes
   wavefun   :     507617. kBytes
 
     INWAV:  cpu time    0.0010: real time    0.0002
 Broyden mixing: mesh for mixing (old mesh)
   NGX =259   NGY = 11   NGZ = 91
  (NGX  =***   NGY  = 48   NGZ  =384)
  gives a total of 259259 points

 initial charge density was supplied:
 charge density of overlapping atoms calculated
 number of electron     840.0000000 magnetization     140.0000000
 keeping initial charge density in first step


--------------------------------------------------------------------------------------------------------


 Maximum index for non-local projection operator         9697
 Maximum index for augmentation-charges         1011 (set IRDMAX)


--------------------------------------------------------------------------------------------------------


 First call to EWALD:  gamma=   0.109
 Maximum number of real-space cells 1x13x 2
 Maximum number of reciprocal cells 9x 1x 4

 FEWALD executed in parallel
    FEWALD:  cpu time    0.0080: real time    0.0074


----------------------------------------- Iteration    1(   1)  ---------------------------------------


    POTLOK:  cpu time    1.5848: real time    1.5909
    SETDIJ:  cpu time    0.0410: real time    0.0407
     EDDAV:  cpu time  290.6108: real time  292.2587
       DOS:  cpu time    0.0040: real time    0.0037
    --------------------------------------------
      LOOP:  cpu time  292.2426: real time  293.9757

 eigenvalue-minimisations  : 22992
 total energy-change (2. order) : 0.8143240E+04  (-0.4369462E+05)
 number of electron     840.0000000 magnetization     140.0000000
 augmentation part      840.0000000 magnetization     140.0000000

 Free energy of the ion-electron system (eV)
  ---------------------------------------------------
  alpha Z        PSCENC =       906.18543316
  Ewald energy   TEWEN  =    548840.51088000
  -Hartree energ DENC   =   -603079.82793667
  -exchange      EXHF   =         0.00000000
  -V(xc)+E(xc)   XCENC  =      2605.76434322
  PAW double counting   =     49860.20380426   -48881.35834518
  entropy T*S    EENTRO =        -0.00865142
  eigenvalues    EBANDS =     -4639.60736069
  atomic energy  EATOM  =     62531.37739984
  Solvation  Ediel_sol  =         0.00000000
  ---------------------------------------------------
  free energy    TOTEN  =      8143.23956652 eV

  energy without entropy =     8143.24821794  energy(sigma->0) =     8143.24389223


--------------------------------------------------------------------------------------------------------




----------------------------------------- Iteration    1(   2)  ---------------------------------------


     EDDAV:  cpu time  335.5160: real time  337.3410
       DOS:  cpu time    0.0080: real time    0.0071
    --------------------------------------------
      LOOP:  cpu time  335.5250: real time  337.6049

 eigenvalue-minimisations  : 27744
 total energy-change (2. order) :-0.8585985E+04  (-0.8319335E+04)
 number of electron     840.0000000 magnetization     140.0000000
 augmentation part      840.0000000 magnetization     140.0000000

 Free energy of the ion-electron system (eV)
  ---------------------------------------------------
  alpha Z        PSCENC =       906.18543316
  Ewald energy   TEWEN  =    548840.51088000
  -Hartree energ DENC   =   -603079.82793667
  -exchange      EXHF   =         0.00000000
  -V(xc)+E(xc)   XCENC  =      2605.76434322
  PAW double counting   =     49860.20380426   -48881.35834518
  entropy T*S    EENTRO =        -0.00114128
  eigenvalues    EBANDS =    -13225.60001923
  atomic energy  EATOM  =     62531.37739984
  Solvation  Ediel_sol  =         0.00000000
  ---------------------------------------------------
  free energy    TOTEN  =      -442.74558187 eV

  energy without entropy =     -442.74444059  energy(sigma->0) =     -442.74501123


--------------------------------------------------------------------------------------------------------




----------------------------------------- Iteration    1(   3)  ---------------------------------------


     EDDAV:  cpu time  309.0640: real time  310.5933
       DOS:  cpu time    0.0050: real time    0.0047
    --------------------------------------------
      LOOP:  cpu time  309.0700: real time  310.7033

 eigenvalue-minimisations  : 24912
 total energy-change (2. order) :-0.9044639E+03  (-0.8922878E+03)
 number of electron     840.0000000 magnetization     140.0000000
 augmentation part      840.0000000 magnetization     140.0000000

 Free energy of the ion-electron system (eV)
  ---------------------------------------------------
  alpha Z        PSCENC =       906.18543316
  Ewald energy   TEWEN  =    548840.51088000
  -Hartree energ DENC   =   -603079.82793667
  -exchange      EXHF   =         0.00000000
  -V(xc)+E(xc)   XCENC  =      2605.76434322
  PAW double counting   =     49860.20380426   -48881.35834518
  entropy T*S    EENTRO =        -0.00176596
  eigenvalues    EBANDS =    -14130.06328706
  atomic energy  EATOM  =     62531.37739984
  Solvation  Ediel_sol  =         0.00000000
  ---------------------------------------------------
  free energy    TOTEN  =     -1347.20947439 eV

  energy without entropy =    -1347.20770843  energy(sigma->0) =    -1347.20859141


--------------------------------------------------------------------------------------------------------




----------------------------------------- Iteration    1(   4)  ---------------------------------------


     EDDAV:  cpu time  321.3152: real time  322.7464
       DOS:  cpu time    0.0050: real time    0.0047
    --------------------------------------------
      LOOP:  cpu time  321.3212: real time  322.8658

 eigenvalue-minimisations  : 26160
 total energy-change (2. order) :-0.3359020E+02  (-0.3337496E+02)
 number of electron     840.0000000 magnetization     140.0000000
 augmentation part      840.0000000 magnetization     140.0000000

 Free energy of the ion-electron system (eV)
  ---------------------------------------------------
  alpha Z        PSCENC =       906.18543316
  Ewald energy   TEWEN  =    548840.51088000
  -Hartree energ DENC   =   -603079.82793667
  -exchange      EXHF   =         0.00000000
  -V(xc)+E(xc)   XCENC  =      2605.76434322
  PAW double counting   =     49860.20380426   -48881.35834518
  entropy T*S    EENTRO =        -0.00151470
  eigenvalues    EBANDS =    -14163.65374189
  atomic energy  EATOM  =     62531.37739984
  Solvation  Ediel_sol  =         0.00000000
  ---------------------------------------------------
  free energy    TOTEN  =     -1380.79967796 eV

  energy without entropy =    -1380.79816326  energy(sigma->0) =    -1380.79892061


--------------------------------------------------------------------------------------------------------




----------------------------------------- Iteration    1(   5)  ---------------------------------------


     EDDAV:  cpu time  321.3751: real time  322.8429
       DOS:  cpu time    0.0050: real time    0.0048
    CHARGE:  cpu time   13.0540: real time   13.0862
    MIXING:  cpu time    0.0170: real time    0.0172
    --------------------------------------------
      LOOP:  cpu time  334.4512: real time  336.0717

 eigenvalue-minimisations  : 26208
 total energy-change (2. order) :-0.1014001E+01  (-0.1011631E+01)
 number of electron     839.9999943 magnetization     137.9646620
 augmentation part       59.1485567 magnetization     136.1264310

 Broyden mixing:
  rms(total) = 0.18053E+02    rms(broyden)= 0.18052E+02
  rms(prec ) = 0.18102E+02
  weight for this iteration     100.00

 Free energy of the ion-electron system (eV)
  ---------------------------------------------------
  alpha Z        PSCENC =       906.18543316
  Ewald energy   TEWEN  =    548840.51088000
  -Hartree energ DENC   =   -603079.82793667
  -exchange      EXHF   =         0.00000000
  -V(xc)+E(xc)   XCENC  =      2605.76434322
  PAW double counting   =     49860.20380426   -48881.35834518
  entropy T*S    EENTRO =        -0.00151112
  eigenvalues    EBANDS =    -14164.66774600
  atomic energy  EATOM  =     62531.37739984
  Solvation  Ediel_sol  =         0.00000000
  ---------------------------------------------------
  free energy    TOTEN  =     -1381.81367849 eV

  energy without entropy =    -1381.81216737  energy(sigma->0) =    -1381.81292293


--------------------------------------------------------------------------------------------------------




----------------------------------------- Iteration    1(   6)  ---------------------------------------


    POTLOK:  cpu time    1.5278: real time    1.5335
    SETDIJ:  cpu time    0.0440: real time    0.0430
     EDDAV:  cpu time  295.5471: real time  297.0107
       DOS:  cpu time    0.0060: real time    0.0054
    CHARGE:  cpu time   13.0460: real time   13.1444
    MIXING:  cpu time    0.0200: real time    0.0193
    --------------------------------------------
      LOOP:  cpu time  310.1918: real time  311.8850

 eigenvalue-minimisations  : 23472
 total energy-change (2. order) : 0.3120364E+03  (-0.1160660E+03)
 number of electron     839.9999965 magnetization     136.1429438
 augmentation part       64.8853191 magnetization     128.5353107

 Broyden mixing:
  rms(total) = 0.74578E+01    rms(broyden)= 0.74572E+01
  rms(prec ) = 0.75794E+01
  weight for this iteration     100.00

 eigenvalues of (default mixing * dielectric matrix)
  average eigenvalue GAMMA=   0.9258
  0.9258

 Free energy of the ion-electron system (eV)
  ---------------------------------------------------
  alpha Z        PSCENC =       906.18543316
  Ewald energy   TEWEN  =    548840.51088000
  -Hartree energ DENC   =   -603296.22298058
  -exchange      EXHF   =         0.00000000
  -V(xc)+E(xc)   XCENC  =      2755.41609703
  PAW double counting   =     72948.56546605   -72067.04577200
  entropy T*S    EENTRO =        -0.00288307
  eigenvalues    EBANDS =    -13688.56092405
  atomic energy  EATOM  =     62531.37739984
  Solvation  Ediel_sol  =         0.00000000
  ---------------------------------------------------
  free energy    TOTEN  =     -1069.77728361 eV

  energy without entropy =    -1069.77440054  energy(sigma->0) =    -1069.77584207


--------------------------------------------------------------------------------------------------------




----------------------------------------- Iteration    1(   7)  ---------------------------------------


    POTLOK:  cpu time    1.5238: real time    1.5287
    SETDIJ:  cpu time    0.0440: real time    0.0436
     EDDAV:  cpu time  304.1688: real time  305.7859
       DOS:  cpu time    0.0060: real time    0.0055
    CHARGE:  cpu time   13.0010: real time   13.0857
    MIXING:  cpu time    0.0200: real time    0.0196
    --------------------------------------------
      LOOP:  cpu time  318.7635: real time  320.6040

 eigenvalue-minimisations  : 24384
 total energy-change (2. order) :-0.2338247E+02  (-0.8779873E+02)
 number of electron     839.9999960 magnetization     134.1335867
 augmentation part       56.7314456 magnetization     128.5955454

 Broyden mixing:
  rms(total) = 0.60099E+01    rms(broyden)= 0.60096E+01
  rms(prec ) = 0.61052E+01
  weight for this iteration     100.00

 eigenvalues of (default mixing * dielectric matrix)
  average eigenvalue GAMMA=   0.9437
  1.3354  0.5520

 Free energy of the ion-electron system (eV)
  ---------------------------------------------------
  alpha Z        PSCENC =       906.18543316
  Ewald energy   TEWEN  =    548840.51088000
  -Hartree energ DENC   =   -604011.55372756
  -exchange      EXHF   =         0.00000000
  -V(xc)+E(xc)   XCENC  =      2763.19326136
  PAW double counting   =     90851.91164437   -89938.22184191
  entropy T*S    EENTRO =        -0.00173007
  eigenvalues    EBANDS =    -13036.56107771
  atomic energy  EATOM  =     62531.37739984
  Solvation  Ediel_sol  =         0.00000000
  ---------------------------------------------------
  free energy    TOTEN  =     -1093.15975852 eV

  energy without entropy =    -1093.15802845  energy(sigma->0) =    -1093.15889349


--------------------------------------------------------------------------------------------------------




----------------------------------------- Iteration    1(   8)  ---------------------------------------


    POTLOK:  cpu time    1.5158: real time    1.5221
    SETDIJ:  cpu time    0.0440: real time    0.0433
     EDDAV:  cpu time  307.6452: real time  308.6943
       DOS:  cpu time    0.0050: real time    0.0049
    CHARGE:  cpu time   13.0450: real time   13.0803
    MIXING:  cpu time    0.0220: real time    0.0213
    --------------------------------------------
      LOOP:  cpu time  322.2780: real time  323.5035

 eigenvalue-minimisations  : 24672
 total energy-change (2. order) : 0.4413589E+02  (-0.9949794E+01)
 number of electron     839.9999962 magnetization     131.7293320
 augmentation part       57.6218113 magnetization     126.9809214

 Broyden mixing:
  rms(total) = 0.41347E+01    rms(broyden)= 0.41346E+01
  rms(prec ) = 0.41756E+01
  weight for this iteration     100.00

 eigenvalues of (default mixing * dielectric matrix)
  average eigenvalue GAMMA=   0.9976
  1.6394  0.6768  0.6768

 Free energy of the ion-electron system (eV)
  ---------------------------------------------------
  alpha Z        PSCENC =       906.18543316
  Ewald energy   TEWEN  =    548840.51088000
  -Hartree energ DENC   =   -604086.97844048
  -exchange      EXHF   =         0.00000000
  -V(xc)+E(xc)   XCENC  =      2770.06656769
  PAW double counting   =    105132.84349858  -104241.36796549
  entropy T*S    EENTRO =        -0.00113537
  eigenvalues    EBANDS =    -12901.66010295
  atomic energy  EATOM  =     62531.37739984
  Solvation  Ediel_sol  =         0.00000000
  ---------------------------------------------------
  free energy    TOTEN  =     -1049.02386502 eV

  energy without entropy =    -1049.02272964  energy(sigma->0) =    -1049.02329733


--------------------------------------------------------------------------------------------------------




----------------------------------------- Iteration    1(   9)  ---------------------------------------


    POTLOK:  cpu time    1.5318: real time    1.5384
    SETDIJ:  cpu time    0.0430: real time    0.0433
     EDDAV:  cpu time  300.6143: real time  302.2208
       DOS:  cpu time    0.0040: real time    0.0040
    CHARGE:  cpu time   13.0100: real time   13.0964
    MIXING:  cpu time    0.0220: real time    0.0226
    --------------------------------------------
      LOOP:  cpu time  315.2261: real time  317.1668

 eigenvalue-minimisations  : 24048
 total energy-change (2. order) : 0.2512380E+01  (-0.9759175E+01)
 number of electron     839.9999960 magnetization     129.8912779
 augmentation part       59.1014193 magnetization     121.1163234

 Broyden mixing:
  rms(total) = 0.36044E+01    rms(broyden)= 0.36041E+01
  rms(prec ) = 0.36639E+01
  weight for this iteration     100.00

 eigenvalues of (default mixing * dielectric matrix)
  average eigenvalue GAMMA=   0.9666
  2.0221  0.7634  0.5405  0.5405

 Free energy of the ion-electron system (eV)
  ---------------------------------------------------
  alpha Z        PSCENC =       906.18543316
  Ewald energy   TEWEN  =    548840.51088000
  -Hartree energ DENC   =   -604207.51049355
  -exchange      EXHF   =         0.00000000
  -V(xc)+E(xc)   XCENC  =      2770.79246609
  PAW double counting   =    114310.08360116  -113433.66370248
  entropy T*S    EENTRO =        -0.00386754
  eigenvalues    EBANDS =    -12764.28320150
  atomic energy  EATOM  =     62531.37739984
  Solvation  Ediel_sol  =         0.00000000
  ---------------------------------------------------
  free energy    TOTEN  =     -1046.51148482 eV

  energy without entropy =    -1046.50761728  energy(sigma->0) =    -1046.50955105


--------------------------------------------------------------------------------------------------------




----------------------------------------- Iteration    1(  10)  ---------------------------------------


    POTLOK:  cpu time    1.5008: real time    1.5060
    SETDIJ:  cpu time    0.0440: real time    0.0434
     EDDAV:  cpu time  297.3698: real time  298.9739
       DOS:  cpu time    0.0030: real time    0.0039
    CHARGE:  cpu time   12.9880: real time   13.0728
    MIXING:  cpu time    0.0250: real time    0.0245
    --------------------------------------------
      LOOP:  cpu time  311.9316: real time  313.7746

 eigenvalue-minimisations  : 23760
 total energy-change (2. order) : 0.2955243E+01  (-0.7662485E+01)
 number of electron     839.9999963 magnetization     128.4811816
 augmentation part       58.9197645 magnetization     121.8508860

 Broyden mixing:
  rms(total) = 0.28599E+01    rms(broyden)= 0.28599E+01
  rms(prec ) = 0.28754E+01
  weight for this iteration     100.00

 eigenvalues of (default mixing * dielectric matrix)
  average eigenvalue GAMMA=   0.9245
  2.0002  1.0429  0.6597  0.4599  0.4599

 Free energy of the ion-electron system (eV)
  ---------------------------------------------------
  alpha Z        PSCENC =       906.18543316
  Ewald energy   TEWEN  =    548840.51088000
  -Hartree energ DENC   =   -604286.98213789
  -exchange      EXHF   =         0.00000000
  -V(xc)+E(xc)   XCENC  =      2769.86619303
  PAW double counting   =    119723.58248897  -118853.22082766
  entropy T*S    EENTRO =        -0.00138750
  eigenvalues    EBANDS =    -12674.87428330
  atomic energy  EATOM  =     62531.37739984
  Solvation  Ediel_sol  =         0.00000000
  ---------------------------------------------------
  free energy    TOTEN  =     -1043.55624135 eV

  energy without entropy =    -1043.55485386  energy(sigma->0) =    -1043.55554760


--------------------------------------------------------------------------------------------------------




----------------------------------------- Iteration    1(  11)  ---------------------------------------


    POTLOK:  cpu time    1.5338: real time    1.5392
    SETDIJ:  cpu time    0.0420: real time    0.0422
     EDDAV:  cpu time  288.8541: real time  290.4004
       DOS:  cpu time    0.0050: real time    0.0041
    CHARGE:  cpu time   13.0130: real time   13.0971
    MIXING:  cpu time    0.0320: real time    0.0320
    --------------------------------------------
      LOOP:  cpu time  303.4809: real time  305.4215

 eigenvalue-minimisations  : 22848
 total energy-change (2. order) :-0.5433960E+01  (-0.1304286E+01)
 number of electron     839.9999961 magnetization     126.7921427
 augmentation part       58.9395421 magnetization     118.1258657

 Broyden mixing:
  rms(total) = 0.25967E+01    rms(broyden)= 0.25966E+01
  rms(prec ) = 0.26057E+01
  weight for this iteration     100.00

 eigenvalues of (default mixing * dielectric matrix)
  average eigenvalue GAMMA=   0.8439
  1.9311  1.1251  0.6890  0.5051  0.5051  0.3081

 Free energy of the ion-electron system (eV)
  ---------------------------------------------------
  alpha Z        PSCENC =       906.18543316
  Ewald energy   TEWEN  =    548840.51088000
  -Hartree energ DENC   =   -604348.25647371
  -exchange      EXHF   =         0.00000000
  -V(xc)+E(xc)   XCENC  =      2765.12037883
  PAW double counting   =    118568.85485018  -117698.20355468
  entropy T*S    EENTRO =        -0.00170392
  eigenvalues    EBANDS =    -12614.57741075
  atomic energy  EATOM  =     62531.37739984
  Solvation  Ediel_sol  =         0.00000000
  ---------------------------------------------------
  free energy    TOTEN  =     -1048.99020106 eV

  energy without entropy =    -1048.98849714  energy(sigma->0) =    -1048.98934910


--------------------------------------------------------------------------------------------------------




----------------------------------------- Iteration    1(  12)  ---------------------------------------


    POTLOK:  cpu time    1.5358: real time    1.5416
    SETDIJ:  cpu time    0.0430: real time    0.0418
     EDDAV:  cpu time  302.7120: real time  303.5718
       DOS:  cpu time    0.0040: real time    0.0040
    CHARGE:  cpu time   13.0530: real time   13.1087
    MIXING:  cpu time    0.0270: real time    0.0274
    --------------------------------------------
      LOOP:  cpu time  317.3758: real time  318.4457

 eigenvalue-minimisations  : 24288
 total energy-change (2. order) :-0.7775337E+01  (-0.1028333E+01)
 number of electron     839.9999962 magnetization     121.3803000
 augmentation part       58.7152920 magnetization     114.3120218

 Broyden mixing:
  rms(total) = 0.24299E+01    rms(broyden)= 0.24299E+01
  rms(prec ) = 0.24386E+01
  weight for this iteration     100.00

 eigenvalues of (default mixing * dielectric matrix)
  average eigenvalue GAMMA=   0.9882
  1.9987  1.9987  0.8720  0.6112  0.6112  0.4796  0.3456

 Free energy of the ion-electron system (eV)
  ---------------------------------------------------
  alpha Z        PSCENC =       906.18543316
  Ewald energy   TEWEN  =    548840.51088000
  -Hartree energ DENC   =   -604407.13284650
  -exchange      EXHF   =         0.00000000
  -V(xc)+E(xc)   XCENC  =      2760.51181468
  PAW double counting   =    117215.21747948  -116344.36874750
  entropy T*S    EENTRO =        -0.00164868
  eigenvalues    EBANDS =    -12559.06530226
  atomic energy  EATOM  =     62531.37739984
  Solvation  Ediel_sol  =         0.00000000
  ---------------------------------------------------
  free energy    TOTEN  =     -1056.76553777 eV

  energy without entropy =    -1056.76388909  energy(sigma->0) =    -1056.76471343


--------------------------------------------------------------------------------------------------------




----------------------------------------- Iteration    1(  13)  ---------------------------------------


    POTLOK:  cpu time    1.5308: real time    1.5350
    SETDIJ:  cpu time    0.0410: real time    0.0417
     EDDAV:  cpu time  294.2883: real time  295.8614
       DOS:  cpu time    0.0040: real time    0.0042
    CHARGE:  cpu time   13.1060: real time   13.1861
    MIXING:  cpu time    0.0340: real time    0.0331
    --------------------------------------------
      LOOP:  cpu time  309.0040: real time  310.7873

 eigenvalue-minimisations  : 23376
 total energy-change (2. order) :-0.1628638E+02  (-0.8709858E+00)
 number of electron     839.9999961 magnetization     117.1718931
 augmentation part       58.8333678 magnetization     109.3964178

 Broyden mixing:
  rms(total) = 0.21143E+01    rms(broyden)= 0.21143E+01
  rms(prec ) = 0.21167E+01
  weight for this iteration     100.00

 eigenvalues of (default mixing * dielectric matrix)
  average eigenvalue GAMMA=   1.0957
  2.7910  2.3845  0.8527  0.5683  0.5683  0.6216  0.6216  0.3575

 Free energy of the ion-electron system (eV)
  ---------------------------------------------------
  alpha Z        PSCENC =       906.18543316
  Ewald energy   TEWEN  =    548840.51088000
  -Hartree energ DENC   =   -604581.87968218
  -exchange      EXHF   =         0.00000000
  -V(xc)+E(xc)   XCENC  =      2752.68468092
  PAW double counting   =    115729.96168046  -114862.23355280
  entropy T*S    EENTRO =        -0.00215278
  eigenvalues    EBANDS =    -12389.65660206
  atomic energy  EATOM  =     62531.37739984
  Solvation  Ediel_sol  =         0.00000000
  ---------------------------------------------------
  free energy    TOTEN  =     -1073.05191544 eV

  energy without entropy =    -1073.04976265  energy(sigma->0) =    -1073.05083905


--------------------------------------------------------------------------------------------------------




----------------------------------------- Iteration    1(  14)  ---------------------------------------


    POTLOK:  cpu time    1.5318: real time    1.5363
    SETDIJ:  cpu time    0.0440: real time    0.0438
     EDDAV:  cpu time  307.7382: real time  308.5229
       DOS:  cpu time    0.0050: real time    0.0037
    CHARGE:  cpu time   13.0500: real time   13.0823
    MIXING:  cpu time    0.0320: real time    0.0315
    --------------------------------------------
      LOOP:  cpu time  322.4010: real time  323.3587

 eigenvalue-minimisations  : 24768
 total energy-change (2. order) :-0.1285906E+02  (-0.4019631E+00)
 number of electron     839.9999961 magnetization     112.0790136
 augmentation part       58.9675916 magnetization     104.3733462

 Broyden mixing:
  rms(total) = 0.20084E+01    rms(broyden)= 0.20084E+01
  rms(prec ) = 0.20098E+01
  weight for this iteration     100.00

 eigenvalues of (default mixing * dielectric matrix)
  average eigenvalue GAMMA=   1.1606
  3.6618  2.0825  1.0119  1.0119  0.6364  0.6364  0.5263  0.5263  0.3516

 Free energy of the ion-electron system (eV)
  ---------------------------------------------------
  alpha Z        PSCENC =       906.18543316
  Ewald energy   TEWEN  =    548840.51088000
  -Hartree energ DENC   =   -604702.96568746
  -exchange      EXHF   =         0.00000000
  -V(xc)+E(xc)   XCENC  =      2746.21697872
  PAW double counting   =    115982.54264489  -115116.58664711
  entropy T*S    EENTRO =        -0.00347696
  eigenvalues    EBANDS =    -12273.18849879
  atomic energy  EATOM  =     62531.37739984
  Solvation  Ediel_sol  =         0.00000000
  ---------------------------------------------------
  free energy    TOTEN  =     -1085.91097370 eV

  energy without entropy =    -1085.90749674  energy(sigma->0) =    -1085.90923522


--------------------------------------------------------------------------------------------------------




----------------------------------------- Iteration    1(  15)  ---------------------------------------


    POTLOK:  cpu time    1.5238: real time    1.5348
    SETDIJ:  cpu time    0.0410: real time    0.0406
     EDDAV:  cpu time  298.3316: real time  299.9249
       DOS:  cpu time    0.0040: real time    0.0034
    CHARGE:  cpu time   12.9800: real time   13.0573
    MIXING:  cpu time    0.0360: real time    0.0355
    --------------------------------------------
      LOOP:  cpu time  312.9164: real time  314.8561

 eigenvalue-minimisations  : 23904
 total energy-change (2. order) :-0.1710076E+02  (-0.6716102E+00)
 number of electron     839.9999962 magnetization     107.4205131
 augmentation part       58.8513358 magnetization     100.8196924

 Broyden mixing:
  rms(total) = 0.19328E+01    rms(broyden)= 0.19328E+01
  rms(prec ) = 0.19391E+01
  weight for this iteration     100.00

 eigenvalues of (default mixing * dielectric matrix)
  average eigenvalue GAMMA=   1.1860
  4.1047  1.5475  1.5475  1.4150  0.6268  0.6268  0.5753  0.5753  0.4881  0.3528

 Free energy of the ion-electron system (eV)
  ---------------------------------------------------
  alpha Z        PSCENC =       906.18543316
  Ewald energy   TEWEN  =    548840.51088000
  -Hartree energ DENC   =   -604827.69968078
[...]
     31.66172      1.45500     15.00044         0.003127      0.000000      0.000449
     33.33987      1.45500     12.74622         0.000150      0.000000      0.000436
     33.33985      1.45500     10.25174         0.002018      0.000000      0.000668
     34.18204      0.00000      7.99759         0.002026      0.000000     -0.000646
     34.18190      0.00000     15.00058        -0.000954      0.000000      0.000732
     35.85946      0.00000     12.74627         0.001922      0.000000     -0.001047
     35.85947      0.00000     10.25179         0.000493      0.000000      0.002018
     36.70239      1.45500      7.99764         0.005334      0.000000      0.001618
     36.70194      1.45500     15.00030         0.005001      0.000000      0.000761
     38.37901      1.45500     12.74556         0.001235      0.000000      0.001344
     38.37920      1.45500     10.25186        -0.001262      0.000000     -0.000086
     39.22340      0.00000      7.99814         0.000245      0.000000      0.001303
     39.22228      0.00000     14.99920        -0.000648      0.000000     -0.000467
     40.89871      0.00000     12.74441        -0.003567      0.000000      0.001177
     40.89909      0.00000     10.25264        -0.001419      0.000000      0.001493
     41.74443      1.45500      8.00046         0.000037      0.000000      0.000535
     41.74265      1.45500     14.99703        -0.003492      0.000000     -0.000229
     43.41895      1.45500     12.74258        -0.000421      0.000000     -0.003447
     43.41956      1.45500     10.25622         0.001687      0.000000     -0.004918
     44.26458      0.00000      8.00760         0.006809      0.000000      0.003286
     44.26246      0.00000     14.99164         0.004099      0.000000     -0.001258
     45.94423      0.00000     12.73619         0.000386      0.000000     -0.004324
     45.94522      0.00000     10.26450        -0.003311      0.000000     -0.004103
     46.78029      1.45500      8.02501        -0.000690      0.000000     -0.001723
     46.77794      1.45500     14.97608         0.001344      0.000000      0.001614
     48.47512      1.45500     12.72368         0.001072      0.000000     -0.004709
     48.47601      1.45500     10.27821        -0.002130      0.000000     -0.001832
     49.27826      0.00000      8.01215        -0.003422      0.000000      0.001237
     49.27568      0.00000     14.98979         0.000294      0.000000      0.000026
     50.89777      0.00000     12.75503        -0.001388      0.000000      0.002257
     50.89851      0.00000     10.24693         0.000636      0.000000     -0.000935
     51.75275      1.45500      7.99448        -0.000978      0.000000     -0.002352
     51.74960      1.45500     15.00800         0.002267      0.000000      0.004359
      3.07986      1.45500     14.54294         0.003451      0.000000      0.000447
      3.08010      1.45500      8.45330         0.002201      0.000000     -0.001484
      5.63312      0.00000     14.48725         0.000594      0.000000     -0.001992
      5.63334      0.00000      8.50912        -0.001247      0.000000      0.003422
      8.15510      1.45500     14.48735        -0.001043      0.000000      0.000714
      8.15519      1.45500      8.50895        -0.001647      0.000000      0.000353
     10.67425      0.00000     14.49101        -0.002611      0.000000     -0.000725
     10.67437      0.00000      8.50523        -0.003927      0.000000      0.002401
     13.19304      1.45500     14.49215         0.000413      0.000000      0.001096
     13.19319      1.45500      8.50380         0.000484      0.000000      0.001096
     15.71175      0.00000     14.49286        -0.002832      0.000000      0.000854
     15.71189      0.00000      8.50333        -0.003882      0.000000      0.001957
     18.23032      1.45500     14.49313        -0.001760      0.000000     -0.001706
     18.23043      1.45500      8.50276        -0.000684      0.000000      0.004075
     20.74863      0.00000     14.49331        -0.003265      0.000000     -0.003265
     20.74879      0.00000      8.50259         0.000181      0.000000      0.002705
     23.26706      1.45500     14.49326         0.004399      0.000000     -0.001460
     23.26725      1.45500      8.50288         0.006199      0.000000     -0.001383
     25.78589      0.00000     14.49322         0.001625      0.000000     -0.002529
     25.78597      0.00000      8.50320         0.001225      0.000000     -0.001360
     28.30505      1.45500     14.49321         0.001201      0.000000     -0.000246
     28.30510      1.45500      8.50337         0.001089      0.000000      0.000235
     30.82445      0.00000     14.49366        -0.000581      0.000000     -0.000175
     30.82462      0.00000      8.50386        -0.001763      0.000000      0.000266
     33.34439      1.45500     14.49399         0.000876      0.000000      0.000142
     33.34454      1.45500      8.50408         0.000982      0.000000     -0.000482
     35.86456      0.00000     14.49418        -0.000866      0.000000     -0.002430
     35.86481      0.00000      8.50402         0.002902      0.000000     -0.001677
     38.38479      1.45500     14.49375         0.002762      0.000000     -0.000575
     38.38569      1.45500      8.50374        -0.001770      0.000000      0.000219
     40.90554      0.00000     14.49324         0.001485      0.000000     -0.000139
     40.90709      0.00000      8.50375        -0.005461      0.000000      0.001101
     43.42763      1.45500     14.49304         0.002756      0.000000      0.002095
     43.42935      1.45500      8.50559         0.000669      0.000000     -0.000464
     45.95190      0.00000     14.49188        -0.001646      0.000000      0.003119
     45.95390      0.00000      8.50878        -0.004431      0.000000     -0.003176
     48.48517      1.45500     14.50215         0.001982      0.000000      0.003697
     48.48733      1.45500      8.49961         0.002390      0.000000     -0.004428
     51.03132      0.00000     14.52589         0.000353      0.000000     -0.001093
     51.03394      0.00000      8.47621         0.002072      0.000000     -0.001203
 -----------------------------------------------------------------------------------
    total drift:                               -0.016446     -0.000000     -0.006365


--------------------------------------------------------------------------------------------------------



  FREE ENERGIE OF THE ION-ELECTRON SYSTEM (eV)
  ---------------------------------------------------
  free  energy   TOTEN  =     -1221.17398155 eV

  energy  without entropy=    -1221.17156155  energy(sigma->0) =    -1221.17277155
 


--------------------------------------------------------------------------------------------------------


    POTLOK:  cpu time    1.6048: real time    1.6123


--------------------------------------------------------------------------------------------------------


 writing wavefunctions
     LOOP+:  cpu time23933.7045: real time24175.6359
    4ORBIT:  cpu time    0.0000: real time    0.0000
 


 total charge     
 
# of ion     s       p       d       tot
----------------------------------------
  1        2.291   6.186   3.959  12.436
  2        2.303   6.271   3.880  12.454
  3        2.312   6.288   3.905  12.505
  4        2.313   6.290   3.912  12.516
  5        2.313   6.291   3.914  12.518
  6        2.313   6.291   3.916  12.520
  7        2.313   6.292   3.916  12.521
  8        2.313   6.292   3.916  12.521
  9        2.313   6.292   3.916  12.522
 10        2.313   6.292   3.917  12.522
 11        2.313   6.292   3.916  12.522
 12        2.313   6.292   3.916  12.521
 13        2.313   6.292   3.916  12.521
 14        2.313   6.292   3.916  12.521
 15        2.313   6.292   3.916  12.521
 16        2.314   6.292   3.916  12.522
 17        2.314   6.293   3.916  12.523
 18        2.315   6.294   3.917  12.527
 19        2.320   6.296   3.899  12.515
 20        2.330   6.292   3.804  12.426
 21        1.247   2.505   0.000   3.752
 22        1.247   2.505   0.000   3.752
 23        1.231   2.643   0.000   3.874
 24        1.231   2.643   0.000   3.874
 25        1.241   2.545   0.000   3.786
 26        1.241   2.545   0.000   3.786
 27        1.224   2.670   0.000   3.894
 28        1.224   2.670   0.000   3.894
 29        1.240   2.551   0.000   3.791
 30        1.240   2.551   0.000   3.791
 31        1.223   2.668   0.000   3.891
 32        1.223   2.668   0.000   3.891
 33        1.240   2.552   0.000   3.792
 34        1.240   2.552   0.000   3.792
 35        1.223   2.667   0.000   3.891
 36        1.223   2.667   0.000   3.891
 37        1.240   2.553   0.000   3.792
 38        1.240   2.553   0.000   3.792
 39        1.223   2.667   0.000   3.890
 40        1.223   2.667   0.000   3.890
 41        1.240   2.553   0.000   3.793
 42        1.240   2.553   0.000   3.793
 43        1.223   2.667   0.000   3.890
 44        1.223   2.667   0.000   3.890
 45        1.240   2.553   0.000   3.793
 46        1.240   2.553   0.000   3.793
 47        1.223   2.667   0.000   3.890
 48        1.223   2.667   0.000   3.890
 49        1.240   2.553   0.000   3.793
 50        1.240   2.553   0.000   3.793
 51        1.223   2.667   0.000   3.890
 52        1.223   2.667   0.000   3.890
 53        1.240   2.553   0.000   3.793
 54        1.240   2.553   0.000   3.793
 55        1.223   2.667   0.000   3.890
 56        1.223   2.667   0.000   3.890
 57        1.240   2.553   0.000   3.793
 58        1.240   2.553   0.000   3.793
 59        1.223   2.667   0.000   3.890
 60        1.223   2.667   0.000   3.890
 61        1.240   2.553   0.000   3.793
 62        1.240   2.553   0.000   3.793
 63        1.223   2.667   0.000   3.890
 64        1.223   2.667   0.000   3.890
 65        1.240   2.553   0.000   3.793
 66        1.240   2.553   0.000   3.793
 67        1.223   2.667   0.000   3.890
 68        1.223   2.667   0.000   3.890
 69        1.240   2.553   0.000   3.792
 70        1.240   2.553   0.000   3.793
 71        1.223   2.667   0.000   3.890
 72        1.223   2.667   0.000   3.890
 73        1.240   2.553   0.000   3.792
 74        1.240   2.553   0.000   3.793
 75        1.223   2.666   0.000   3.889
 76        1.223   2.667   0.000   3.890
 77        1.240   2.553   0.000   3.792
 78        1.240   2.553   0.000   3.792
 79        1.223   2.666   0.000   3.889
 80        1.223   2.667   0.000   3.890
 81        1.240   2.553   0.000   3.793
 82        1.240   2.552   0.000   3.792
 83        1.223   2.667   0.000   3.890
 84        1.223   2.667   0.000   3.890
 85        1.240   2.552   0.000   3.792
 86        1.240   2.552   0.000   3.792
 87        1.223   2.668   0.000   3.891
 88        1.223   2.668   0.000   3.891
 89        1.242   2.550   0.000   3.792
 90        1.242   2.550   0.000   3.792
 91        1.224   2.671   0.000   3.895
 92        1.224   2.671   0.000   3.895
 93        1.244   2.529   0.000   3.774
 94        1.244   2.530   0.000   3.774
 95        1.230   2.658   0.000   3.888
 96        1.230   2.658   0.000   3.888
 97        1.262   2.460   0.000   3.722
 98        1.262   2.460   0.000   3.722
 99        1.267   2.487   0.000   3.754
100        1.267   2.487   0.000   3.754
101        0.730   0.881   0.000   1.611
102        0.730   0.881   0.000   1.611
103        0.683   0.960   0.000   1.643
104        0.683   0.960   0.000   1.643
105        0.682   0.962   0.000   1.643
106        0.682   0.962   0.000   1.643
107        0.681   0.960   0.000   1.641
108        0.681   0.960   0.000   1.641
109        0.681   0.959   0.000   1.640
110        0.681   0.959   0.000   1.640
111        0.681   0.959   0.000   1.640
112        0.681   0.959   0.000   1.640
113        0.681   0.959   0.000   1.640
114        0.681   0.959   0.000   1.640
115        0.681   0.959   0.000   1.640
116        0.681   0.959   0.000   1.640
117        0.681   0.959   0.000   1.640
118        0.681   0.959   0.000   1.640
119        0.681   0.959   0.000   1.640
120        0.681   0.959   0.000   1.640
121        0.681   0.959   0.000   1.640
122        0.681   0.959   0.000   1.640
123        0.681   0.958   0.000   1.639
124        0.681   0.958   0.000   1.639
125        0.681   0.958   0.000   1.639
126        0.681   0.958   0.000   1.639
127        0.681   0.958   0.000   1.639
128        0.681   0.958   0.000   1.639
129        0.681   0.958   0.000   1.639
130        0.681   0.958   0.000   1.639
131        0.681   0.958   0.000   1.639
132        0.681   0.958   0.000   1.639
133        0.681   0.960   0.000   1.640
134        0.681   0.959   0.000   1.640
135        0.681   0.963   0.000   1.644
136        0.681   0.963   0.000   1.643
137        0.682   0.965   0.000   1.647
138        0.682   0.965   0.000   1.647
139        0.686   0.984   0.000   1.670
140        0.686   0.984   0.000   1.670
------------------------------------------------
tot      172.326 372.010  78.184 622.519
 


 magnetization (x)
 
# of ion     s       p       d       tot
----------------------------------------
  1        0.022   0.012   0.274   0.308
  2        0.006   0.006   0.182   0.193
  3        0.000   0.001   0.043   0.044
  4        0.000   0.000   0.006   0.006
  5        0.000   0.000   0.001   0.001
  6       -0.000  -0.000   0.000   0.000
  7       -0.000  -0.000   0.000   0.000
  8       -0.000  -0.000  -0.000  -0.000
  9       -0.000  -0.000  -0.000  -0.000
 10       -0.000  -0.000   0.000   0.000
 11       -0.000  -0.000   0.000   0.000
 12        0.000   0.000   0.000   0.000
 13        0.000   0.000   0.000   0.000
 14        0.000   0.000   0.000   0.000
 15        0.000   0.000   0.001   0.001
 16        0.000   0.000  -0.000  -0.000
 17       -0.000  -0.000  -0.003  -0.003
 18       -0.000   0.000  -0.006  -0.005
 19        0.001   0.002   0.072   0.075
 20        0.001   0.003   0.057   0.060
 21        0.009   0.040   0.000   0.049
 22        0.009   0.040   0.000   0.049
 23        0.016   0.059   0.000   0.075
 24        0.016   0.059   0.000   0.075
 25        0.000   0.009   0.000   0.009
 26        0.000   0.009   0.000   0.009
 27        0.001   0.004   0.000   0.005
 28        0.001   0.004   0.000   0.005
 29        0.000   0.003   0.000   0.003
 30        0.000   0.003   0.000   0.003
 31        0.000   0.000   0.000   0.000
 32        0.000   0.000   0.000   0.000
 33        0.000   0.000   0.000   0.000
 34        0.000   0.000   0.000   0.000
 35        0.000   0.000   0.000   0.000
 36        0.000   0.000   0.000   0.000
 37        0.000   0.000   0.000   0.000
 38        0.000   0.000   0.000   0.000
 39        0.000   0.000   0.000   0.000
 40        0.000   0.000   0.000   0.000
 41        0.000   0.000   0.000   0.000
 42        0.000   0.000   0.000   0.000
 43        0.000   0.000   0.000   0.000
 44        0.000   0.000   0.000   0.000
 45        0.000   0.000   0.000   0.000
 46        0.000   0.000   0.000   0.000
 47        0.000   0.000   0.000   0.000
 48        0.000   0.000   0.000   0.000
 49        0.000   0.000   0.000   0.000
 50        0.000   0.000   0.000   0.000
 51        0.000   0.000   0.000   0.000
 52        0.000   0.000   0.000   0.000
 53        0.000   0.000   0.000   0.000
 54        0.000   0.000   0.000   0.000
 55        0.000   0.000   0.000   0.000
 56        0.000   0.000   0.000   0.000
 57        0.000   0.000   0.000   0.000
 58        0.000   0.000   0.000   0.000
 59        0.000   0.000   0.000   0.000
 60        0.000   0.000   0.000   0.000
 61        0.000   0.000   0.000   0.000
 62        0.000   0.000   0.000   0.000
 63        0.000   0.000   0.000   0.000
 64        0.000   0.000   0.000   0.000
 65       -0.000   0.000   0.000   0.000
 66       -0.000   0.000   0.000   0.000
 67        0.000   0.000   0.000   0.000
 68        0.000   0.000   0.000   0.000
 69       -0.000   0.000   0.000   0.000
 70       -0.000   0.000   0.000   0.000
 71        0.000   0.000   0.000   0.000
 72        0.000   0.000   0.000   0.000
 73       -0.000   0.000   0.000   0.000
 74       -0.000   0.000   0.000   0.000
 75       -0.000  -0.000   0.000  -0.000
 76       -0.000  -0.000   0.000  -0.000
 77       -0.000   0.000   0.000   0.000
 78       -0.000   0.000   0.000   0.000
 79       -0.000  -0.000   0.000  -0.000
 80       -0.000  -0.000   0.000  -0.000
 81        0.000  -0.000   0.000  -0.000
 82        0.000  -0.000   0.000  -0.000
 83       -0.000   0.000   0.000  -0.000
 84       -0.000   0.000   0.000  -0.000
 85        0.000   0.000   0.000   0.000
 86        0.000   0.000   0.000   0.000
 87        0.000   0.000   0.000   0.000
 88        0.000   0.000   0.000   0.000
 89        0.000   0.001   0.000   0.001
 90        0.000   0.001   0.000   0.001
 91        0.000   0.003   0.000   0.003
 92        0.000   0.003   0.000   0.003
 93        0.000   0.018   0.000   0.018
 94        0.000   0.018   0.000   0.018
 95        0.002   0.045   0.000   0.047
 96        0.002   0.045   0.000   0.047
 97        0.012   0.246   0.000   0.258
 98        0.012   0.246   0.000   0.258
 99        0.011   0.360   0.000   0.371
100        0.011   0.361   0.000   0.371
101        0.082   0.166   0.000   0.248
102        0.082   0.166   0.000   0.248
103        0.005   0.015   0.000   0.020
104        0.005   0.015   0.000   0.020
105        0.000   0.002   0.000   0.002
106        0.000   0.002   0.000   0.002
107        0.000   0.000   0.000   0.000
108        0.000   0.000   0.000   0.000
109        0.000   0.000   0.000   0.000
110        0.000   0.000   0.000   0.000
111        0.000   0.000   0.000   0.000
112        0.000   0.000   0.000   0.000
113        0.000  -0.000   0.000   0.000
114        0.000  -0.000   0.000   0.000
115       -0.000  -0.000   0.000  -0.000
116       -0.000  -0.000   0.000  -0.000
117       -0.000  -0.000   0.000  -0.000
118       -0.000  -0.000   0.000  -0.000
119        0.000  -0.000   0.000  -0.000
120        0.000  -0.000   0.000  -0.000
121        0.000  -0.000   0.000   0.000
122        0.000  -0.000   0.000   0.000
123        0.000   0.000   0.000   0.000
124        0.000   0.000   0.000   0.000
125        0.000   0.000   0.000   0.000
126        0.000   0.000   0.000   0.000
127        0.000   0.000   0.000   0.000
128        0.000   0.000   0.000   0.000
129        0.000   0.000   0.000   0.000
130        0.000   0.000   0.000   0.000
131       -0.000  -0.000   0.000  -0.000
132       -0.000  -0.000   0.000  -0.000
133       -0.000  -0.000   0.000  -0.000
134       -0.000  -0.000   0.000  -0.000
135        0.000  -0.000   0.000   0.000
136        0.000  -0.000   0.000   0.000
137        0.000   0.001   0.000   0.002
138        0.000   0.001   0.000   0.002
139       -0.005  -0.010   0.000  -0.015
140       -0.005  -0.010   0.000  -0.015
------------------------------------------------
tot        0.297   1.950   0.628   2.876
 

 total amount of memory used by VASP on root node   900032. kBytes
========================================================================

   base      :      30000. kBytes
   nonlr-proj:      96624. kBytes
   fftplans  :      24492. kBytes
   grid      :     236945. kBytes
   one-center:       4354. kBytes
   wavefun   :     507617. kBytes
 
  
  
 General timing and accounting informations for this job:
 ========================================================
  
                  Total CPU time used (sec):    24110.023
                            User time (sec):    23186.563
                          System time (sec):      923.461
                         Elapsed time (sec):    24371.174
  
                   Maximum memory used (kb):     1109844.
                   Average memory used (kb):           0.
  
                          Minor page faults:     12414144
                          Major page faults:            3
                 Voluntary context switches:         2472
