       N       E                     dE             d eps       ncg     rms          rms(c)
DAV:   1     0.726713328239E+04    0.72671E+04   -0.43168E+05103968   0.136E+03
DAV:   2    -0.377566146650E+03   -0.76447E+04   -0.72698E+04120144   0.317E+02
DAV:   3    -0.118768669978E+04   -0.81012E+03   -0.79360E+03113760   0.982E+01
DAV:   4    -0.121978788388E+04   -0.32101E+02   -0.31795E+02118032   0.205E+01
DAV:   5    -0.122075456563E+04   -0.96668E+00   -0.96343E+00117264   0.325E+00
DAV:   6    -0.122079927530E+04   -0.44710E-01   -0.44692E-01122208   0.684E-01
DAV:   7    -0.122080089463E+04   -0.16193E-02   -0.16190E-02119712   0.121E-01
DAV:   8    -0.122080098731E+04   -0.92680E-04   -0.92642E-04118656   0.273E-02
DAV:   9    -0.122080099096E+04   -0.36573E-05   -0.36224E-05 99264   0.524E-03
   1 F= -.12208010E+04 E0= -.12207996E+04  d E =-.274313E-02  mag=     4.7775
