 vasp.5.4.1 24Jun15 (build Dec 27 2015 16:41:11) complex                        
  
 executed on             LinuxIFC date 2020.12.15  13:00:13
 running on   48 total cores
 distrk:  each k-point on   48 cores,    1 groups
 distr:  one band on NCORES_PER_BAND=   1 cores,   48 groups


--------------------------------------------------------------------------------------------------------


 INCAR:
 POTCAR:    PAW_PBE Mo_sv 02Feb2006               
 POTCAR:    PAW_PBE N 08Apr2002                   
 POTCAR:    PAW_PBE Si 05Jan2001                  

 ----------------------------------------------------------------------------- 
|                                                                             |
|           W    W    AA    RRRRR   N    N  II  N    N   GGGG   !!!           |
|           W    W   A  A   R    R  NN   N  II  NN   N  G    G  !!!           |
|           W    W  A    A  R    R  N N  N  II  N N  N  G       !!!           |
|           W WW W  AAAAAA  RRRRR   N  N N  II  N  N N  G  GGG   !            |
|           WW  WW  A    A  R   R   N   NN  II  N   NN  G    G                |
|           W    W  A    A  R    R  N    N  II  N    N   GGGG   !!!           |
|                                                                             |
|      For optimal performance we recommend to set                            |
|        NCORE= 4 - approx SQRT( number of cores)                             |
|      NCORE specifies how many cores store one orbital (NPAR=cpu/NCORE).     |
|      This setting can  greatly improve the performance of VASP for DFT.     |
|      The default, NPAR=number of cores might be grossly inefficient         |
|      on modern multi-core architectures or massively parallel machines.     |
|      Do your own testing !!!!                                               |
|      Unfortunately you need to use the default for GW and RPA calculations. |
|      (for HF NCORE is supported but not extensively tested yet)             |
|                                                                             |
 ----------------------------------------------------------------------------- 

 POTCAR:    PAW_PBE Mo_sv 02Feb2006               
   VRHFIN =Mo: 4p5s4d                                                           
   LEXCH  = PE                                                                  
   EATOM  =  1862.2866 eV,  136.8742 Ry                                         
                                                                                
   TITEL  = PAW_PBE Mo_sv 02Feb2006                                             
   LULTRA =        F    use ultrasoft PP ?                                      
   IUNSCR =        1    unscreen: 0-lin 1-nonlin 2-no                           
   RPACOR =    2.200    partial core radius                                     
   POMASS =   95.940; ZVAL   =   14.000    mass and valenz                      
   RCORE  =    2.500    outmost cutoff radius                                   
   RWIGS  =    2.750; RWIGS  =    1.455    wigner-seitz radius (au A)           
   ENMAX  =  242.676; ENMIN  =  182.007 eV                                      
   ICORE  =        3    local potential                                         
   LCOR   =        T    correct aug charges                                     
   LPAW   =        T    paw PP                                                  
   EAUG   =  446.014                                                            
   DEXC   =    0.000                                                            
   RMAX   =    2.563    core radius for proj-oper                               
   RAUG   =    1.300    factor for augmentation sphere                          
   RDEP   =    2.641    radius for radial grids                                 
   RDEPT  =    2.031    core radius for aug-charge                              
                                                                                
   Atomic configuration                                                         
   11 entries                                                                   
     n  l   j            E        occ.                                          
     1  0  0.50    -19819.0341   2.0000                                         
     2  0  0.50     -2799.0127   2.0000                                         
     2  1  1.50     -2502.0276   6.0000                                         
     3  0  0.50      -476.4449   2.0000                                         
     3  1  1.50      -379.1496   6.0000                                         
     3  2  2.50      -220.9367  10.0000                                         
     4  0  0.50       -64.3378   2.0000                                         
     5  0  0.50        -4.0862   1.0000                                         
     4  1  1.50       -38.4773   6.0000                                         
     4  2  2.50        -3.7535   5.0000                                         
     4  3  2.50        -1.3606   0.0000                                         
   Description                                                                  
     l       E           TYP  RCUT    TYP  RCUT                                 
     0    -64.3377829     23  2.100                                             
     0     -4.0861640     23  2.400                                             
     1    -38.4772993     23  2.100                                             
     1     13.6058260     23  2.100                                             
     2     -3.7534941     23  2.400                                             
     2     -5.1140767     23  2.400                                             
     3     -4.0817478     23  2.500                                             
  local pseudopotential read in
  partial core-charges read in
  partial kinetic energy density read in
  atomic valenz-charges read in
  non local Contribution for L=           0  read in
    real space projection operators read in
  non local Contribution for L=           0  read in
    real space projection operators read in
  non local Contribution for L=           1  read in
    real space projection operators read in
  non local Contribution for L=           1  read in
    real space projection operators read in
  non local Contribution for L=           2  read in
    real space projection operators read in
  non local Contribution for L=           2  read in
    real space projection operators read in
    PAW grid and wavefunctions read in
 
   number of l-projection  operators is LMAX  =           6
   number of lm-projection operators is LMMAX =          18
 
 POTCAR:    PAW_PBE N 08Apr2002                   
   VRHFIN =N: s2p3                                                              
   LEXCH  = PE                                                                  
   EATOM  =   264.5486 eV,   19.4438 Ry                                         
                                                                                
   TITEL  = PAW_PBE N 08Apr2002                                                 
   LULTRA =        F    use ultrasoft PP ?                                      
   IUNSCR =        1    unscreen: 0-lin 1-nonlin 2-no                           
   RPACOR =    1.200    partial core radius                                     
   POMASS =   14.001; ZVAL   =    5.000    mass and valenz                      
   RCORE  =    1.500    outmost cutoff radius                                   
   RWIGS  =    1.400; RWIGS  =    0.741    wigner-seitz radius (au A)           
   ENMAX  =  400.000; ENMIN  =  300.000 eV                                      
   ICORE  =        2    local potential                                         
   LCOR   =        T    correct aug charges                                     
   LPAW   =        T    paw PP                                                  
   EAUG   =  627.112                                                            
   DEXC   =    0.000                                                            
   RMAX   =    1.529    core radius for proj-oper                               
   RAUG   =    1.300    factor for augmentation sphere                          
   RDEP   =    1.514    radius for radial grids                                 
   RDEPT  =    1.338    core radius for aug-charge                              
                                                                                
   Atomic configuration                                                         
    4 entries                                                                   
     n  l   j            E        occ.                                          
     1  0  0.50      -384.7179   2.0000                                         
     2  0  0.50       -18.5828   2.0000                                         
     2  1  0.50        -7.0898   3.0000                                         
     3  2  1.50        -6.8029   0.0000                                         
   Description                                                                  
     l       E           TYP  RCUT    TYP  RCUT                                 
     0    -18.5828119     23  1.200                                             
     0    -13.5018863     23  1.200                                             
     1     -7.0897853     23  1.500                                             
     1      9.5240782     23  1.500                                             
     2     -6.8029130      7  1.500                                             
  local pseudopotential read in
  partial core-charges read in
  partial kinetic energy density read in
  atomic valenz-charges read in
  non local Contribution for L=           0  read in
    real space projection operators read in
  non local Contribution for L=           0  read in
    real space projection operators read in
  non local Contribution for L=           1  read in
    real space projection operators read in
  non local Contribution for L=           1  read in
    real space projection operators read in
    PAW grid and wavefunctions read in
 
   number of l-projection  operators is LMAX  =           4
   number of lm-projection operators is LMMAX =           8
 
 POTCAR:    PAW_PBE Si 05Jan2001                  
   VRHFIN =Si: s2p2                                                             
   LEXCH  = PE                                                                  
   EATOM  =   103.0669 eV,    7.5752 Ry                                         
                                                                                
   TITEL  = PAW_PBE Si 05Jan2001                                                
   LULTRA =        F    use ultrasoft PP ?                                      
   IUNSCR =        1    unscreen: 0-lin 1-nonlin 2-no                           
   RPACOR =    1.500    partial core radius                                     
   POMASS =   28.085; ZVAL   =    4.000    mass and valenz                      
   RCORE  =    1.900    outmost cutoff radius                                   
   RWIGS  =    2.480; RWIGS  =    1.312    wigner-seitz radius (au A)           
   ENMAX  =  245.345; ENMIN  =  184.009 eV                                      
   ICORE  =        2    local potential                                         
   LCOR   =        T    correct aug charges                                     
   LPAW   =        T    paw PP                                                  
   EAUG   =  322.069                                                            
   DEXC   =    0.000                                                            
   RMAX   =    1.950    core radius for proj-oper                               
   RAUG   =    1.300    factor for augmentation sphere                          
   RDEP   =    1.993    radius for radial grids                                 
   RDEPT  =    1.837    core radius for aug-charge                              
                                                                                
   Atomic configuration                                                         
    6 entries                                                                   
     n  l   j            E        occ.                                          
     1  0  0.50     -1785.8828   2.0000                                         
     2  0  0.50      -139.4969   2.0000                                         
     2  1  1.50       -95.5546   6.0000                                         
     3  0  0.50       -10.8127   2.0000                                         
     3  1  0.50        -4.0811   2.0000                                         
     3  2  1.50        -4.0817   0.0000                                         
   Description                                                                  
     l       E           TYP  RCUT    TYP  RCUT                                 
     0    -10.8127223     23  1.900                                             
     0     -7.6451159     23  1.900                                             
     1     -4.0811372     23  1.900                                             
     1      2.4879257     23  1.900                                             
     2     -4.0817478      7  1.900                                             
  local pseudopotential read in
  partial core-charges read in
  partial kinetic energy density read in
  atomic valenz-charges read in
  non local Contribution for L=           0  read in
    real space projection operators read in
  non local Contribution for L=           0  read in
    real space projection operators read in
  non local Contribution for L=           1  read in
    real space projection operators read in
  non local Contribution for L=           1  read in
    real space projection operators read in
    PAW grid and wavefunctions read in
 
   number of l-projection  operators is LMAX  =           4
   number of lm-projection operators is LMMAX =           8
 
 Optimization of the real space projectors (new method)

 maximal supplied QI-value         = 15.12
 optimisation between [QCUT,QGAM] = [ 12.55, 25.10] = [ 44.09,176.36] Ry 
 Optimized for a Real-space Cutoff    1.61 Angstroem

   l    n(q)    QCUT    max X(q) W(low)/X(q) W(high)/X(q)  e(spline) 
   0     12    12.548     3.559    0.37E-05    0.27E-05    0.23E-06
   0     12    12.548    20.730    0.32E-04    0.37E-05    0.26E-06
   1     12    12.548     3.279    0.14E-06    0.19E-06    0.38E-07
   1     12    12.548     4.693    0.16E-04    0.21E-04    0.34E-06
   2     11    12.548    67.616    0.75E-04    0.14E-03    0.75E-06
   2     11    12.548    62.420    0.75E-04    0.15E-03    0.75E-06
 Optimization of the real space projectors (new method)

 maximal supplied QI-value         = 25.13
 optimisation between [QCUT,QGAM] = [ 12.32, 24.88] = [ 42.47,173.37] Ry 
 Optimized for a Real-space Cutoff    1.35 Angstroem

   l    n(q)    QCUT    max X(q) W(low)/X(q) W(high)/X(q)  e(spline) 
   0     10    12.315    79.467    0.60E-04    0.26E-05    0.59E-06
   0     10    12.315    66.151    0.59E-04    0.23E-05    0.59E-06
   1     10    12.315    22.077    0.13E-03    0.23E-03    0.74E-06
   1     10    12.315    15.894    0.13E-03    0.24E-03    0.75E-06
 Optimization of the real space projectors (new method)

 maximal supplied QI-value         = 19.84
 optimisation between [QCUT,QGAM] = [ 12.50, 25.00] = [ 43.76,175.03] Ry 
 Optimized for a Real-space Cutoff    1.16 Angstroem

   l    n(q)    QCUT    max X(q) W(low)/X(q) W(high)/X(q)  e(spline) 
   0      9    12.501   159.560    0.10E-03    0.83E-04    0.71E-07
   0      9    12.501   115.863    0.99E-04    0.81E-04    0.70E-07
   1      8    12.501    88.339    0.20E-03    0.25E-03    0.76E-07
   1      8    12.501    48.592    0.20E-03    0.24E-03    0.75E-07
  PAW_PBE Mo_sv 02Feb2006               :
 energy of atom  1       EATOM=-1862.2866
 kinetic energy error for atom=    0.0041 (will be added to EATOM!!)
  PAW_PBE N 08Apr2002                   :
 energy of atom  2       EATOM= -264.5486
 kinetic energy error for atom=    0.0103 (will be added to EATOM!!)
  PAW_PBE Si 05Jan2001                  :
 energy of atom  3       EATOM= -103.0669
 kinetic energy error for atom=    0.0003 (will be added to EATOM!!)
 
 
 POSCAR: CONTCAR40                               
  positions in direct lattice
  velocities in cartesian coordinates
 exchange correlation table for  LEXCH =        8
   RHO(1)=    0.500       N(1)  =     2000
   RHO(2)=  100.500       N(2)  =     4000
 


--------------------------------------------------------------------------------------------------------


 ion  position               nearest neighbor table
   1  0.035  0.000  0.500-  21 2.07  21 2.07  22 2.07  22 2.07   2 2.87   2 2.87
   2  0.073  0.500  0.500-  26 2.09  26 2.09  25 2.09  25 2.09  21 2.16  22 2.16   1 2.87   1 2.87
                             3 2.94   3 2.94
   3  0.112  0.000  0.500-  30 2.09  30 2.09  29 2.09  29 2.09  26 2.10  25 2.10   4 2.92   4 2.92
                             2 2.94   2 2.94
   4  0.151  0.500  0.500-  30 2.09  34 2.09  34 2.09  29 2.09  33 2.09  33 2.09   5 2.92   5 2.92
                             3 2.92   3 2.92
   5  0.190  0.000  0.500-  37 2.09  37 2.09  38 2.09  38 2.09  34 2.09  33 2.09   6 2.91   6 2.91
                             4 2.92   4 2.92
   6  0.229  0.500  0.500-  42 2.09  42 2.09  41 2.09  41 2.09  38 2.09  37 2.09   7 2.91   7 2.91
                             5 2.91   5 2.91
   7  0.267  0.000  0.500-  46 2.09  46 2.09  45 2.09  45 2.09  42 2.09  41 2.09   8 2.91   8 2.91
                             6 2.91   6 2.91
   8  0.306  0.500  0.500-  50 2.09  50 2.09  49 2.09  49 2.09  46 2.09  45 2.09   9 2.91   9 2.91
                             7 2.91   7 2.91
   9  0.345  0.000  0.500-  53 2.09  53 2.09  54 2.09  54 2.09  50 2.09  49 2.09  10 2.91  10 2.91
                             8 2.91   8 2.91
  10  0.384  0.500  0.500-  57 2.09  57 2.09  58 2.09  58 2.09  53 2.09  54 2.09   9 2.91   9 2.91
                            11 2.91  11 2.91
  11  0.422  0.000  0.500-  62 2.09  62 2.09  61 2.09  61 2.09  57 2.09  58 2.09  10 2.91  10 2.91
                            12 2.91  12 2.91
  12  0.461  0.500  0.500-  66 2.09  66 2.09  65 2.09  65 2.09  61 2.09  62 2.09  11 2.91  11 2.91
                            13 2.91  13 2.91
  13  0.500  0.000  0.500-  70 2.09  70 2.09  69 2.09  69 2.09  65 2.09  66 2.09  12 2.91  12 2.91
                            14 2.91  14 2.91
  14  0.539  0.500  0.500-  73 2.09  73 2.09  74 2.09  74 2.09  69 2.09  70 2.09  15 2.91  15 2.91
                            13 2.91  13 2.91
  15  0.578  0.000  0.500-  77 2.09  77 2.09  78 2.09  78 2.09  74 2.09  73 2.09  14 2.91  14 2.91
                            16 2.91  16 2.91
  16  0.616  0.500  0.500-  81 2.09  81 2.09  82 2.09  82 2.09  78 2.09  77 2.09  15 2.91  15 2.91
                            17 2.91  17 2.91
  17  0.655  0.000  0.500-  86 2.09  86 2.09  85 2.09  85 2.09  81 2.09  82 2.09  16 2.91  16 2.91
                            18 2.91  18 2.91
  18  0.694  0.500  0.500-  90 2.09  90 2.09  89 2.09  89 2.09  85 2.09  86 2.09  17 2.91  17 2.91
                            19 2.92  19 2.92
  19  0.733  0.000  0.500-  93 2.08  93 2.08  94 2.08  94 2.08  90 2.09  89 2.09  18 2.92  18 2.92
                            20 2.98  20 2.98
  20  0.773  0.500  0.500-  98 2.03  98 2.03  97 2.03  97 2.03  94 2.14  93 2.14  19 2.98  19 2.98

  21  0.046  0.500  0.555- 101 1.77   1 2.07   1 2.07   2 2.16
  22  0.046  0.500  0.445- 102 1.77   1 2.07   1 2.07   2 2.16
  23  0.061  0.000  0.348- 104 1.74 102 1.77 102 1.77
  24  0.061  0.000  0.652- 103 1.74 101 1.77 101 1.77
  25  0.086  0.000  0.554- 103 1.76   2 2.09   2 2.09   3 2.10
  26  0.086  0.000  0.446- 104 1.76   2 2.09   2 2.09   3 2.10
  27  0.100  0.500  0.348- 106 1.75 104 1.75 104 1.75
  28  0.100  0.500  0.651- 105 1.75 103 1.75 103 1.75
  29  0.125  0.500  0.554- 105 1.75   3 2.09   3 2.09   4 2.09
  30  0.125  0.500  0.446- 106 1.75   3 2.09   3 2.09   4 2.09
  31  0.138  0.000  0.348- 106 1.75 106 1.75 108 1.75
  32  0.138  0.000  0.652- 105 1.75 105 1.75 107 1.75
  33  0.164  0.000  0.554- 107 1.75   4 2.09   4 2.09   5 2.09
  34  0.164  0.000  0.446- 108 1.75   4 2.09   4 2.09   5 2.09
  35  0.177  0.500  0.348- 108 1.75 108 1.75 110 1.76
  36  0.177  0.500  0.652- 107 1.75 107 1.75 109 1.76
  37  0.203  0.500  0.554- 109 1.75   5 2.09   5 2.09   6 2.09
  38  0.203  0.500  0.446- 110 1.75   5 2.09   5 2.09   6 2.09
  39  0.216  0.000  0.348- 110 1.75 110 1.75 112 1.76
  40  0.216  0.000  0.652- 109 1.75 109 1.75 111 1.76
  41  0.242  0.000  0.554- 111 1.75   6 2.09   6 2.09   7 2.09
  42  0.242  0.000  0.446- 112 1.75   6 2.09   6 2.09   7 2.09
  43  0.255  0.500  0.348- 112 1.75 112 1.75 114 1.76
  44  0.255  0.500  0.652- 111 1.75 111 1.75 113 1.76
  45  0.280  0.500  0.554- 113 1.75   7 2.09   7 2.09   8 2.09
  46  0.280  0.500  0.446- 114 1.75   7 2.09   7 2.09   8 2.09
  47  0.293  0.000  0.348- 114 1.75 114 1.75 116 1.76
  48  0.293  0.000  0.652- 113 1.75 113 1.75 115 1.76
  49  0.319  0.000  0.554- 115 1.75   8 2.09   8 2.09   9 2.09
  50  0.319  0.000  0.446- 116 1.75   8 2.09   8 2.09   9 2.09
  51  0.332  0.500  0.348- 116 1.75 116 1.75 118 1.76
  52  0.332  0.500  0.652- 115 1.75 115 1.75 117 1.76
  53  0.358  0.500  0.554- 117 1.75   9 2.09   9 2.09  10 2.09
  54  0.358  0.500  0.446- 118 1.75   9 2.09   9 2.09  10 2.09
  55  0.371  0.000  0.348- 118 1.75 118 1.75 120 1.76
  56  0.371  0.000  0.652- 117 1.75 117 1.75 119 1.76
  57  0.397  0.000  0.554- 119 1.75  10 2.09  10 2.09  11 2.09
  58  0.397  0.000  0.446- 120 1.75  10 2.09  10 2.09  11 2.09
  59  0.410  0.500  0.348- 120 1.75 120 1.75 122 1.76
  60  0.410  0.500  0.652- 119 1.75 119 1.75 121 1.76
  61  0.435  0.500  0.554- 121 1.75  11 2.09  11 2.09  12 2.09
  62  0.435  0.500  0.446- 122 1.75  11 2.09  11 2.09  12 2.09
  63  0.448  0.000  0.348- 122 1.75 122 1.75 124 1.76
  64  0.448  0.000  0.652- 121 1.75 121 1.75 123 1.76
  65  0.474  0.000  0.554- 123 1.75  12 2.09  12 2.09  13 2.09
  66  0.474  0.000  0.446- 124 1.75  12 2.09  12 2.09  13 2.09
  67  0.487  0.500  0.348- 124 1.75 124 1.75 126 1.76
  68  0.487  0.500  0.652- 123 1.75 123 1.75 125 1.76
  69  0.513  0.500  0.554- 125 1.75  13 2.09  13 2.09  14 2.09
  70  0.513  0.500  0.446- 126 1.75  13 2.09  13 2.09  14 2.09
  71  0.526  0.000  0.348- 126 1.75 126 1.75 128 1.76
  72  0.526  0.000  0.652- 125 1.75 125 1.75 127 1.76
  73  0.552  0.000  0.554- 127 1.75  14 2.09  14 2.09  15 2.09
  74  0.552  0.000  0.446- 128 1.75  14 2.09  14 2.09  15 2.09
  75  0.565  0.500  0.348- 128 1.75 128 1.75 130 1.76
  76  0.565  0.500  0.652- 127 1.75 127 1.75 129 1.76
  77  0.590  0.500  0.554- 129 1.75  15 2.09  15 2.09  16 2.09
  78  0.590  0.500  0.446- 130 1.75  15 2.09  15 2.09  16 2.09
  79  0.603  0.000  0.348- 130 1.75 130 1.75 132 1.76
  80  0.603  0.000  0.652- 129 1.75 129 1.75 131 1.76
  81  0.629  0.000  0.554- 131 1.75  16 2.09  16 2.09  17 2.09
  82  0.629  0.000  0.446- 132 1.75  16 2.09  16 2.09  17 2.09
  83  0.642  0.500  0.348- 132 1.75 132 1.75 134 1.76
  84  0.642  0.500  0.652- 131 1.75 131 1.75 133 1.76
  85  0.668  0.500  0.554- 133 1.75  17 2.09  17 2.09  18 2.09
  86  0.668  0.500  0.446- 134 1.75  17 2.09  17 2.09  18 2.09
  87  0.681  0.000  0.348- 134 1.75 134 1.75 136 1.76
  88  0.681  0.000  0.652- 133 1.75 133 1.75 135 1.76
  89  0.707  0.000  0.554- 135 1.76  18 2.09  18 2.09  19 2.09
  90  0.707  0.000  0.446- 136 1.76  18 2.09  18 2.09  19 2.09
  91  0.720  0.500  0.349- 136 1.74 136 1.74 138 1.77
  92  0.720  0.500  0.651- 135 1.74 135 1.74 137 1.77
  93  0.746  0.500  0.553- 137 1.78  19 2.08  19 2.08  20 2.14
  94  0.746  0.500  0.447- 138 1.78  19 2.08  19 2.08  20 2.14
  95  0.758  0.000  0.348- 138 1.73 138 1.73 140 1.82
  96  0.758  0.000  0.652- 137 1.73 137 1.73 139 1.82
  97  0.783  0.000  0.555- 139 1.78  20 2.03  20 2.03
  98  0.783  0.000  0.446- 140 1.78  20 2.03  20 2.03
  99  0.796  0.500  0.348- 140 1.69 140 1.69
 100  0.796  0.500  0.653- 139 1.69 139 1.69
 101  0.047  0.500  0.632-  24 1.77  24 1.77  21 1.77 103 2.94 103 2.94
 102  0.047  0.500  0.368-  23 1.77  23 1.77  22 1.77 104 2.94 104 2.94
 103  0.087  0.000  0.630-  24 1.74  28 1.75  28 1.75  25 1.76 105 2.91 105 2.91 101 2.94 101 2.94

 104  0.087  0.000  0.370-  23 1.74  27 1.75  27 1.75  26 1.76 106 2.91 106 2.91 102 2.94 102 2.94

 105  0.125  0.500  0.630-  28 1.75  29 1.75  32 1.75  32 1.75 107 2.91 107 2.91 103 2.91 103 2.91

 106  0.125  0.500  0.370-  27 1.75  30 1.75  31 1.75  31 1.75 108 2.91 108 2.91 104 2.91 104 2.91

 107  0.164  0.000  0.630-  33 1.75  36 1.75  36 1.75  32 1.75 109 2.91 109 2.91 105 2.91 105 2.91

 108  0.164  0.000  0.370-  34 1.75  35 1.75  35 1.75  31 1.75 110 2.91 110 2.91 106 2.91 106 2.91

 109  0.203  0.500  0.630-  37 1.75  40 1.75  40 1.75  36 1.76 111 2.91 111 2.91 107 2.91 107 2.91

 110  0.203  0.500  0.370-  38 1.75  39 1.75  39 1.75  35 1.76 112 2.91 112 2.91 108 2.91 108 2.91

 111  0.242  0.000  0.630-  41 1.75  44 1.75  44 1.75  40 1.76 113 2.91 113 2.91 109 2.91 109 2.91

 112  0.242  0.000  0.370-  42 1.75  43 1.75  43 1.75  39 1.76 114 2.91 114 2.91 110 2.91 110 2.91

 113  0.280  0.500  0.630-  45 1.75  48 1.75  48 1.75  44 1.76 115 2.91 115 2.91 111 2.91 111 2.91

 114  0.280  0.500  0.370-  46 1.75  47 1.75  47 1.75  43 1.76 116 2.91 116 2.91 112 2.91 112 2.91

 115  0.319  0.000  0.630-  49 1.75  52 1.75  52 1.75  48 1.76 113 2.91 113 2.91 117 2.91 117 2.91

 116  0.319  0.000  0.370-  50 1.75  51 1.75  51 1.75  47 1.76 114 2.91 114 2.91 118 2.91 118 2.91

 117  0.358  0.500  0.630-  53 1.75  56 1.75  56 1.75  52 1.76 115 2.91 115 2.91 119 2.91 119 2.91

 118  0.358  0.500  0.370-  54 1.75  55 1.75  55 1.75  51 1.76 116 2.91 116 2.91 120 2.91 120 2.91

 119  0.397  0.000  0.630-  57 1.75  60 1.75  60 1.75  56 1.76 117 2.91 117 2.91 121 2.91 121 2.91

 120  0.397  0.000  0.370-  58 1.75  59 1.75  59 1.75  55 1.76 118 2.91 118 2.91 122 2.91 122 2.91

 121  0.435  0.500  0.630-  61 1.75  64 1.75  64 1.75  60 1.76 119 2.91 119 2.91 123 2.91 123 2.91

 122  0.435  0.500  0.370-  62 1.75  63 1.75  63 1.75  59 1.76 120 2.91 120 2.91 124 2.91 124 2.91

 123  0.474  0.000  0.630-  65 1.75  68 1.75  68 1.75  64 1.76 121 2.91 121 2.91 125 2.91 125 2.91

 124  0.474  0.000  0.370-  66 1.75  67 1.75  67 1.75  63 1.76 122 2.91 122 2.91 126 2.91 126 2.91

 125  0.513  0.500  0.630-  69 1.75  72 1.75  72 1.75  68 1.76 123 2.91 123 2.91 127 2.91 127 2.91

 126  0.513  0.500  0.370-  70 1.75  71 1.75  71 1.75  67 1.76 124 2.91 124 2.91 128 2.91 128 2.91

 127  0.552  0.000  0.630-  73 1.75  76 1.75  76 1.75  72 1.76 125 2.91 125 2.91 129 2.91 129 2.91

 128  0.552  0.000  0.370-  74 1.75  75 1.75  75 1.75  71 1.76 126 2.91 126 2.91 130 2.91 130 2.91

 129  0.591  0.500  0.630-  77 1.75  80 1.75  80 1.75  76 1.76 127 2.91 127 2.91 131 2.91 131 2.91

 130  0.591  0.500  0.370-  78 1.75  79 1.75  79 1.75  75 1.76 128 2.91 128 2.91 132 2.91 132 2.91

 131  0.629  0.000  0.630-  81 1.75  84 1.75  84 1.75  80 1.76 129 2.91 129 2.91 133 2.91 133 2.91

 132  0.629  0.000  0.370-  82 1.75  83 1.75  83 1.75  79 1.76 130 2.91 130 2.91 134 2.91 134 2.91

 133  0.668  0.500  0.630-  88 1.75  88 1.75  85 1.75  84 1.76 131 2.91 131 2.91 135 2.91 135 2.91

 134  0.668  0.500  0.370-  87 1.75  87 1.75  86 1.75  83 1.76 132 2.91 132 2.91 136 2.91 136 2.91

 135  0.707  0.000  0.630-  92 1.74  92 1.74  89 1.76  88 1.76 133 2.91 133 2.91 137 2.92 137 2.92

 136  0.707  0.000  0.370-  91 1.74  91 1.74  90 1.76  87 1.76 134 2.91 134 2.91 138 2.92 138 2.92

 137  0.746  0.500  0.631-  96 1.73  96 1.73  92 1.77  93 1.78 135 2.92 135 2.92 139 2.93 139 2.93

 138  0.746  0.500  0.370-  95 1.73  95 1.73  91 1.77  94 1.78 136 2.92 136 2.92 140 2.93 140 2.93

 139  0.785  0.000  0.632- 100 1.69 100 1.69  97 1.78  96 1.82 137 2.93 137 2.93
 140  0.785  0.000  0.369-  99 1.69  99 1.69  98 1.78  95 1.82 138 2.93 138 2.93
 
  LATTYP: Found a simple orthorhombic cell.
 ALAT       =     2.9100000858
 B/A-ratio  =     7.9037798357
 C/A-ratio  =    22.3367691009
  
  Lattice vectors:
  
 A1 = (   0.0000000000,   2.9100000858,   0.0000000000)
 A2 = (   0.0000000000,   0.0000000000, -23.0000000000)
 A3 = ( -65.0000000000,   0.0000000000,   0.0000000000)


Analysis of symmetry for initial positions (statically):
=====================================================================
 Subroutine PRICEL returns:
 Original cell was already a primitive cell.
 

 Routine SETGRP: Setting up the symmetry group for a 
 simple orthorhombic supercell.


 Subroutine GETGRP returns: Found  2 space group operations
 (whereof  2 operations were pure point group operations)
 out of a pool of  8 trial point group operations.


The static configuration has the point symmetry C_1h.


Analysis of symmetry for dynamics (positions and initial velocities):
=====================================================================
 Subroutine PRICEL returns:
 Original cell was already a primitive cell.
 

 Routine SETGRP: Setting up the symmetry group for a 
 simple orthorhombic supercell.


 Subroutine GETGRP returns: Found  2 space group operations
 (whereof  2 operations were pure point group operations)
 out of a pool of  8 trial point group operations.


The dynamic configuration has the point symmetry C_1h.


Analysis of structural, dynamic, and magnetic symmetry:
=====================================================================
 Subroutine PRICEL returns:
 Original cell was already a primitive cell.
 

 Routine SETGRP: Setting up the symmetry group for a 
 simple orthorhombic supercell.


 Subroutine GETGRP returns: Found  2 space group operations
 (whereof  2 operations were pure point group operations)
 out of a pool of  8 trial point group operations.


The magnetic configuration has the point symmetry C_1h.


 Subroutine INISYM returns: Found  2 space group operations
 (whereof  2 operations are pure point group operations),
 and found     1 'primitive' translations

 
 
 KPOINTS: k-points along high symmetry lines      
  interpolating k-points between supplied coordinates
  k-points in reciprocal lattice
Space group operators:
 irot       det(A)        alpha          n_x          n_y          n_z        tau_x        tau_y        tau_z
    1     1.000000     0.000000     1.000000     0.000000     0.000000     0.000000     0.000000     0.000000
    2    -1.000000   180.000000     0.000000     1.000000     0.000000     0.000000     0.000000     0.000000


--------------------------------------------------------------------------------------------------------




 Dimension of arrays:
   k-points           NKPTS =     40   k-points in BZ     NKDIM =     40   number of bands    NBANDS=    576
   number of dos      NEDOS =   3001   number of ions     NIONS =    140
   non local maximal  LDIM  =      6   non local SUM 2l+1 LMDIM =     18
   total plane-waves  NPLWV = ******
   max r-space proj   IRMAX =   9994   max aug-charges    IRDMAX=  25210
   dimension x,y,z NGX =   540 NGY =   24 NGZ =  192
   dimension x,y,z NGXF=  1080 NGYF=   48 NGZF=  384
   support grid    NGXF=  1080 NGYF=   48 NGZF=  384
   ions per type =              20  80  40
 NGX,Y,Z   is equivalent  to a cutoff of  13.81, 13.71, 13.88 a.u.
 NGXF,Y,Z  is equivalent  to a cutoff of  27.62, 27.42, 27.76 a.u.


 I would recommend the setting:
   dimension x,y,z NGX =   519 NGY =   23 NGZ =  184
 SYSTEM =  unknown system                          
 POSCAR =  CONTCAR40                               

 Startparameter for this run:
   NWRITE =      2    write-flag & timer
   PREC   = accura    normal or accurate (medium, high low for compatibility)
   ISTART =      0    job   : 0-new  1-cont  2-samecut
   ICHARG =     11    charge: 1-file 2-atom 10-const
   ISPIN  =      2    spin polarized calculation?
   LNONCOLLINEAR =      F non collinear calculations
   LSORBIT =      F    spin-orbit coupling
   INIWAV =      1    electr: 0-lowe 1-rand  2-diag
   LASPH  =      F    aspherical Exc in radial PAW
   METAGGA=      F    non-selfconsistent MetaGGA calc.

 Electronic Relaxation 1
   ENCUT  =  600.0 eV  44.10 Ry    6.64 a.u. 129.82  5.81 45.94*2*pi/ulx,y,z
   ENINI  =  600.0     initial cutoff
   ENAUG  =  627.1 eV  augmentation charge cutoff
   NELM   =    100;   NELMIN=  2; NELMDL= -5     # of ELM steps 
   EDIFF  = 0.1E-04   stopping-criterion for ELM
   LREAL  =      T    real-space projection
   NLSPLINE    = F    spline interpolate recip. space projectors
   LCOMPAT=      F    compatible to vasp.4.4
   GGA_COMPAT  = T    GGA compatible to vasp.4.4-vasp.4.6
   LMAXPAW     = -100 max onsite density
   LMAXMIX     =    2 max onsite mixed and CHGCAR
   VOSKOWN=      0    Vosko Wilk Nusair interpolation
   ROPT   =   -0.00025  -0.00025  -0.00025
 Ionic relaxation
   EDIFFG = -.1E-01   stopping-criterion for IOM
   NSW    =      0    number of steps for IOM
   NBLOCK =      1;   KBLOCK =      1    inner block; outer block 
   IBRION =     -1    ionic relax: 0-MD 1-quasi-New 2-CG
   NFREE  =      0    steps in history (QN), initial steepest desc. (CG)
   ISIF   =      2    stress and relaxation
   IWAVPR =     10    prediction:  0-non 1-charg 2-wave 3-comb
   ISYM   =      2    0-nonsym 1-usesym 2-fastsym
   LCORR  =      T    Harris-Foulkes like correction to forces

   POTIM  = 0.5000    time-step for ionic-motion
   TEIN   =    0.0    initial temperature
   TEBEG  =    0.0;   TEEND  =   0.0 temperature during run
   SMASS  =  -3.00    Nose mass-parameter (am)
   estimated Nose-frequenzy (Omega)   =  0.10E-29 period in steps =****** mass=  -0.966E-25a.u.
   SCALEE = 1.0000    scale energy and forces
   NPACO  =    256;   APACO  = 16.0  distance and # of slots for P.C.
   PSTRESS=    0.0 pullay stress

  Mass of Ions in am
   POMASS =  95.94 14.00 28.09
  Ionic Valenz
   ZVAL   =  14.00  5.00  4.00
  Atomic Wigner-Seitz radii
   RWIGS  =  -1.00 -1.00 -1.00
  virtual crystal weights 
   VCA    =   1.00  1.00  1.00
   NELECT =     840.0000    total number of electrons
   NUPDOWN=      -1.0000    fix difference up-down

 DOS related values:
   EMIN   =  10.00;   EMAX   =-10.00  energy-range for DOS
   EFERMI =   0.00
   ISMEAR =     0;   SIGMA  =   0.02  broadening in eV -4-tet -1-fermi 0-gaus

 Electronic relaxation 2 (details)
   IALGO  =     38    algorithm
   LDIAG  =      T    sub-space diagonalisation (order eigenvalues)
   LSUBROT=      F    optimize rotation matrix (better conditioning)
   TURBO    =      0    0=normal 1=particle mesh
   IRESTART =      0    0=no restart 2=restart with 2 vectors
   NREBOOT  =      0    no. of reboots
   NMIN     =      0    reboot dimension
   EREF     =   0.00    reference energy to select bands
   IMIX   =      4    mixing-type and parameters
     AMIX     =   0.40;   BMIX     =  1.00
     AMIX_MAG =   1.60;   BMIX_MAG =  1.00
     AMIN     =   0.01
     WC   =   100.;   INIMIX=   1;  MIXPRE=   1;  MAXMIX= -45

 Intra band minimization:
   WEIMIN = 0.0000     energy-eigenvalue tresh-hold
   EBREAK =  0.43E-08  absolut break condition
   DEPER  =   0.30     relativ break condition  

   TIME   =   0.40     timestep for ELM

  volume/ion in A,a.u.               =      31.07       209.70
  Fermi-wavevector in a.u.,A,eV,Ry     =   0.946215  1.788087 12.181608  0.895323
  Thomas-Fermi vector in A             =   2.074191
 
 Write flags
   LWAVE  =      F    write WAVECAR
   LCHARG =      T    write CHGCAR
   LVTOT  =      F    write LOCPOT, total local potential
   LVHAR  =      F    write LOCPOT, Hartree potential only
   LELF   =      F    write electronic localiz. function (ELF)
   LORBIT =     11    0 simple, 1 ext, 2 COOP (PROOUT)


 Dipole corrections
   LMONO  =      F    monopole corrections only (constant potential shift)
   LDIPOL =      F    correct potential (dipole corrections)
   IDIPOL =      0    1-x, 2-y, 3-z, 4-all directions 
   EPSILON=  1.0000000 bulk dielectric constant

 Exchange correlation treatment:
   GGA     =    --    GGA type
   LEXCH   =     8    internal setting for exchange type
   VOSKOWN=      0    Vosko Wilk Nusair interpolation
   LHFCALC =     F    Hartree Fock is set to
   LHFONE  =     F    Hartree Fock one center treatment
   AEXX    =    0.0000 exact exchange contribution

 Linear response parameters
   LEPSILON=     F    determine dielectric tensor
   LRPA    =     F    only Hartree local field effects (RPA)
   LNABLA  =     F    use nabla operator in PAW spheres
   LVEL    =     F    velocity operator in full k-point grid
   LINTERFAST=   F  fast interpolation
   KINTER  =     0    interpolate to denser k-point grid
   CSHIFT  =0.1000    complex shift for real part using Kramers Kronig
   OMEGAMAX=  -1.0    maximum frequency
   DEG_THRESHOLD= 0.2000000E-02 threshold for treating states as degnerate
   RTIME   =    0.100 relaxation time in fs

 Orbital magnetization related:
   ORBITALMAG=     F  switch on orbital magnetization
   LCHIMAG   =     F  perturbation theory with respect to B field
   DQ        =  0.001000  dq finite difference perturbation B field



--------------------------------------------------------------------------------------------------------


 Static calculation
 charge density and potential remain constant during run
 spin polarized calculation
 Variant of blocked Davidson
 Davidson routine will perform the subspace rotation
 perform sub-space diagonalisation
    after iterative eigenvector-optimisation
 no mixing
 using additional bands          156
 real space projection scheme for non local part
 use partial core corrections
 calculate Harris-corrections to forces 
   (improved forces if not selfconsistent)
 use gradient corrections 
 WARNING: stress and forces are not correct
  (second derivative of E(xc) not defined)
 use of overlap-Matrix (Vanderbilt PP)
 Gauss-broadening in eV      SIGMA  =   0.02


--------------------------------------------------------------------------------------------------------


  energy-cutoff  :      600.00
  volume of cell :     4350.45
      direct lattice vectors                 reciprocal lattice vectors
    65.000000000  0.000000000  0.000000000     0.015384615  0.000000000  0.000000000
     0.000000000  2.910000086  0.000000000     0.000000000  0.343642602  0.000000000
     0.000000000  0.000000000 23.000000000     0.000000000  0.000000000  0.043478261

  length of vectors
    65.000000000  2.910000086 23.000000000     0.015384615  0.343642602  0.043478261


 
 k-points in units of 2pi/SCALE and weight: k-points along high symmetry lines      
   0.00000000  0.00000000  0.00000000       0.025
   0.00000000  0.00440567  0.00000000       0.025
   0.00000000  0.00881135  0.00000000       0.025
   0.00000000  0.01321702  0.00000000       0.025
   0.00000000  0.01762270  0.00000000       0.025
   0.00000000  0.02202837  0.00000000       0.025
   0.00000000  0.02643405  0.00000000       0.025
   0.00000000  0.03083972  0.00000000       0.025
   0.00000000  0.03524540  0.00000000       0.025
   0.00000000  0.03965107  0.00000000       0.025
   0.00000000  0.04405674  0.00000000       0.025
   0.00000000  0.04846242  0.00000000       0.025
   0.00000000  0.05286809  0.00000000       0.025
   0.00000000  0.05727377  0.00000000       0.025
   0.00000000  0.06167944  0.00000000       0.025
   0.00000000  0.06608512  0.00000000       0.025
   0.00000000  0.07049079  0.00000000       0.025
   0.00000000  0.07489646  0.00000000       0.025
   0.00000000  0.07930214  0.00000000       0.025
   0.00000000  0.08370781  0.00000000       0.025
   0.00000000  0.08811349  0.00000000       0.025
   0.00000000  0.09251916  0.00000000       0.025
   0.00000000  0.09692484  0.00000000       0.025
   0.00000000  0.10133051  0.00000000       0.025
   0.00000000  0.10573619  0.00000000       0.025
   0.00000000  0.11014186  0.00000000       0.025
   0.00000000  0.11454753  0.00000000       0.025
   0.00000000  0.11895321  0.00000000       0.025
   0.00000000  0.12335888  0.00000000       0.025
   0.00000000  0.12776456  0.00000000       0.025
   0.00000000  0.13217023  0.00000000       0.025
   0.00000000  0.13657591  0.00000000       0.025
   0.00000000  0.14098158  0.00000000       0.025
   0.00000000  0.14538725  0.00000000       0.025
   0.00000000  0.14979293  0.00000000       0.025
   0.00000000  0.15419860  0.00000000       0.025
   0.00000000  0.15860428  0.00000000       0.025
   0.00000000  0.16300995  0.00000000       0.025
   0.00000000  0.16741563  0.00000000       0.025
   0.00000000  0.17182130  0.00000000       0.025
 
 k-points in reciprocal lattice and weights: k-points along high symmetry lines      
   0.00000000  0.00000000  0.00000000       0.025
   0.00000000  0.01282051  0.00000000       0.025
   0.00000000  0.02564103  0.00000000       0.025
   0.00000000  0.03846154  0.00000000       0.025
   0.00000000  0.05128205  0.00000000       0.025
   0.00000000  0.06410256  0.00000000       0.025
   0.00000000  0.07692308  0.00000000       0.025
   0.00000000  0.08974359  0.00000000       0.025
   0.00000000  0.10256410  0.00000000       0.025
   0.00000000  0.11538462  0.00000000       0.025
   0.00000000  0.12820513  0.00000000       0.025
   0.00000000  0.14102564  0.00000000       0.025
   0.00000000  0.15384615  0.00000000       0.025
   0.00000000  0.16666667  0.00000000       0.025
   0.00000000  0.17948718  0.00000000       0.025
   0.00000000  0.19230769  0.00000000       0.025
   0.00000000  0.20512821  0.00000000       0.025
   0.00000000  0.21794872  0.00000000       0.025
   0.00000000  0.23076923  0.00000000       0.025
   0.00000000  0.24358974  0.00000000       0.025
   0.00000000  0.25641026  0.00000000       0.025
   0.00000000  0.26923077  0.00000000       0.025
   0.00000000  0.28205128  0.00000000       0.025
   0.00000000  0.29487179  0.00000000       0.025
   0.00000000  0.30769231  0.00000000       0.025
   0.00000000  0.32051282  0.00000000       0.025
   0.00000000  0.33333333  0.00000000       0.025
   0.00000000  0.34615385  0.00000000       0.025
   0.00000000  0.35897436  0.00000000       0.025
   0.00000000  0.37179487  0.00000000       0.025
   0.00000000  0.38461538  0.00000000       0.025
   0.00000000  0.39743590  0.00000000       0.025
   0.00000000  0.41025641  0.00000000       0.025
   0.00000000  0.42307692  0.00000000       0.025
   0.00000000  0.43589744  0.00000000       0.025
   0.00000000  0.44871795  0.00000000       0.025
   0.00000000  0.46153846  0.00000000       0.025
   0.00000000  0.47435897  0.00000000       0.025
   0.00000000  0.48717949  0.00000000       0.025
   0.00000000  0.50000000  0.00000000       0.025
 
 position of ions in fractional coordinates (direct lattice) 
   0.03461872  0.00000000  0.49991828
   0.07274041  0.50000000  0.49992057
   0.11203859  0.00000000  0.49992020
   0.15106291  0.50000000  0.49991874
   0.18993022  0.00000000  0.49991551
   0.22872881  0.50000000  0.49991683
   0.26749647  0.00000000  0.49991197
   0.30624912  0.50000000  0.49991064
   0.34499728  0.00000000  0.49991405
   0.38374387  0.50000000  0.49991841
   0.42249426  0.00000000  0.49992383
   0.46125086  0.50000000  0.49993867
   0.50001300  0.00000000  0.49995149
   0.53877648  0.50000000  0.49995786
   0.57753804  0.00000000  0.49994879
   0.61630333  0.50000000  0.49993495
   0.65507613  0.00000000  0.49995709
   0.69390674  0.50000000  0.49999594
   0.73279611  0.00000000  0.50003061
   0.77272925  0.50000000  0.50003320
   0.04586817  0.50000000  0.55529726
   0.04586862  0.50000000  0.44453965
   0.06112164  0.00000000  0.34758838
   0.06111844  0.00000000  0.65225359
   0.08597014  0.00000000  0.55355981
   0.08597098  0.00000000  0.44628568
   0.09967271  0.50000000  0.34847663
   0.09967059  0.50000000  0.65136485
   0.12512915  0.50000000  0.55383316
   0.12512926  0.50000000  0.44601034
   0.13835897  0.00000000  0.34799692
   0.13835751  0.00000000  0.65184564
   0.16404411  0.00000000  0.55405536
   0.16404425  0.00000000  0.44578516
   0.17709817  0.50000000  0.34777547
   0.17709666  0.50000000  0.65206127
   0.20286707  0.50000000  0.55411493
   0.20286803  0.50000000  0.44571707
   0.21584541  0.00000000  0.34769471
   0.21584290  0.00000000  0.65213433
   0.24164397  0.00000000  0.55414410
   0.24164328  0.00000000  0.44569312
   0.25459224  0.50000000  0.34766534
   0.25459136  0.50000000  0.65216670
   0.28040089  0.50000000  0.55415292
   0.28040073  0.50000000  0.44567497
   0.29333734  0.00000000  0.34763444
   0.29333482  0.00000000  0.65219048
   0.31914973  0.00000000  0.55415672
   0.31915087  0.00000000  0.44566824
   0.33208433  0.50000000  0.34763187
   0.33208035  0.50000000  0.65219294
   0.35789693  0.50000000  0.55415570
   0.35789772  0.50000000  0.44567111
   0.37083181  0.00000000  0.34764327
   0.37082828  0.00000000  0.65218606
   0.39664312  0.00000000  0.55415415
   0.39664454  0.00000000  0.44568183
   0.40958140  0.50000000  0.34766620
   0.40958128  0.50000000  0.65217529
   0.43539480  0.50000000  0.55416000
   0.43539802  0.50000000  0.44569526
   0.44834197  0.00000000  0.34768142
   0.44833860  0.00000000  0.65217989
   0.47415552  0.00000000  0.55417427
   0.47415786  0.00000000  0.44571769
   0.48710820  0.50000000  0.34771204
   0.48710331  0.50000000  0.65219319
   0.51292112  0.50000000  0.55418355
   0.51292077  0.50000000  0.44572789
   0.52587752  0.00000000  0.34772111
   0.52587546  0.00000000  0.65219893
   0.55168395  0.00000000  0.55418555
   0.55168421  0.00000000  0.44572990
   0.56465216  0.50000000  0.34772330
   0.56464519  0.50000000  0.65218676
   0.59044635  0.50000000  0.55415482
   0.59044928  0.50000000  0.44573312
   0.60343693  0.00000000  0.34774504
   0.60341963  0.00000000  0.65213923
   0.62921089  0.00000000  0.55410461
   0.62921670  0.00000000  0.44576709
   0.64222207  0.50000000  0.34784623
   0.64219467  0.50000000  0.65204491
   0.66798377  0.50000000  0.55402501
   0.66799325  0.50000000  0.44592276
   0.68099358  0.00000000  0.34815670
   0.68096087  0.00000000  0.65181059
   0.70683429  0.00000000  0.55374753
   0.70684949  0.00000000  0.44628263
   0.71969684  0.50000000  0.34891349
   0.71966063  0.50000000  0.65113370
   0.74577103  0.50000000  0.55320362
   0.74578479  0.50000000  0.44687862
   0.75812705  0.00000000  0.34835452
   0.75808731  0.00000000  0.65172988
   0.78304259  0.00000000  0.55456631
   0.78305405  0.00000000  0.44551855
   0.79619616  0.50000000  0.34758603
   0.79614773  0.50000000  0.65252156
   0.04738250  0.50000000  0.63230174
   0.04738617  0.50000000  0.36753500
   0.08666338  0.00000000  0.62988046
   0.08666677  0.00000000  0.36996170
   0.12546302  0.50000000  0.62988493
   0.12546445  0.50000000  0.36995441
   0.16421918  0.00000000  0.63004392
   0.16422111  0.00000000  0.36979253
   0.20296990  0.50000000  0.63009351
   0.20297218  0.50000000  0.36973052
   0.24171926  0.00000000  0.63012421
   0.24172137  0.00000000  0.36970985
   0.28046650  0.50000000  0.63013604
   0.28046822  0.50000000  0.36968507
   0.31920970  0.00000000  0.63014389
   0.31921215  0.00000000  0.36967794
   0.35795476  0.50000000  0.63014178
   0.35795773  0.50000000  0.36969037
   0.39670598  0.00000000  0.63013979
   0.39670730  0.00000000  0.36970450
   0.43546231  0.50000000  0.63013940
   0.43546303  0.50000000  0.36971159
   0.47422230  0.00000000  0.63015910
   0.47422499  0.00000000  0.36973306
   0.51299055  0.50000000  0.63017329
   0.51299296  0.50000000  0.36974240
   0.55176246  0.00000000  0.63018178
   0.55176624  0.00000000  0.36973988
   0.59053526  0.50000000  0.63016286
   0.59054904  0.50000000  0.36972786
   0.62931600  0.00000000  0.63014094
   0.62933979  0.00000000  0.36972829
   0.66811739  0.50000000  0.63013226
   0.66814378  0.50000000  0.36980841
   0.70695237  0.00000000  0.63008175
   0.70698309  0.00000000  0.36994716
   0.74592574  0.50000000  0.63052806
   0.74595898  0.50000000  0.36954825
   0.78509725  0.00000000  0.63156029
   0.78513756  0.00000000  0.36853073
 
 position of ions in cartesian coordinates  (Angst):
   2.25021687  0.00000000 11.49812047
   4.72812656  1.45500004 11.49817303
   7.28250837  0.00000000 11.49816470
   9.81908905  1.45500004 11.49813105
  12.34546399  0.00000000 11.49805668
  14.86737279  1.45500004 11.49808715
  17.38727054  0.00000000 11.49797542
  19.90619297  1.45500004 11.49794471
  22.42482332  0.00000000 11.49802308
  24.94335164  1.45500004 11.49812351
  27.46212661  0.00000000 11.49824816
  29.98130566  1.45500004 11.49858932
  32.50084475  0.00000000 11.49888424
  35.02047116  1.45500004 11.49903067
  37.53997251  0.00000000 11.49882213
  40.05971663  1.45500004 11.49850378
  42.57994865  0.00000000 11.49901299
  45.10393829  1.45500004 11.49990665
  47.63174747  0.00000000 11.50070400
  50.22740154  1.45500004 11.50076349
   2.98143101  1.45500004 12.77183690
   2.98146057  1.45500004 10.22441199
   3.97290666  0.00000000  7.99453270
   3.97269870  0.00000000 15.00183248
   5.58805917  0.00000000 12.73187561
   5.58811369  0.00000000 10.26457074
   6.47872604  1.45500004  8.01496241
   6.47858827  1.45500004 14.98139150
   8.13339507  1.45500004 12.73816267
   8.13340179  1.45500004 10.25823792
   8.99333274  0.00000000  8.00392912
   8.99323801  0.00000000 14.99244973
  10.66286716  0.00000000 12.74327338
  10.66287645  0.00000000 10.25305876
  11.51138086  1.45500004  7.99883575
  11.51128275  1.45500004 14.99740931
  13.18635923  1.45500004 12.74464330
  13.18642225  1.45500004 10.25149270
  14.02995147  0.00000000  7.99697839
  14.02978865  0.00000000 14.99908955
  15.70685775  0.00000000 12.74531422
  15.70681289  0.00000000 10.25094183
  16.54849547  1.45500004  7.99630280
  16.54843842  1.45500004 14.99983400
  18.22605779  1.45500004 12.74551706
  18.22604730  1.45500004 10.25052434
  19.06692690  0.00000000  7.99559206
  19.06676352  0.00000000 15.00038099
  20.74473249  0.00000000 12.74560449
  20.74480624  0.00000000 10.25036961
  21.58548146  1.45500004  7.99553302
  21.58522278  1.45500004 15.00043763
  23.26330018  1.45500004 12.74558108
  23.26335153  1.45500004 10.25043546
  24.10406771  0.00000000  7.99579530
  24.10383818  0.00000000 15.00027932
  25.78180274  0.00000000 12.74554536
  25.78189485  0.00000000 10.25068214
  26.62279071  1.45500004  7.99632262
  26.62278295  1.45500004 15.00003168
  28.30066183  1.45500004 12.74567997
  28.30087132  1.45500004 10.25099092
  29.14222779  0.00000000  7.99667255
  29.14200905  0.00000000 15.00013749
  30.82010861  0.00000000 12.74600830
  30.82026069  0.00000000 10.25150691
  31.66203278  1.45500004  7.99737700
  31.66171530  1.45500004 15.00044327
  33.33987252  1.45500004 12.74622161
  33.33985022  1.45500004 10.25174150
  34.18203904  0.00000000  7.99758552
  34.18190458  0.00000000 15.00057549
  35.85945646  0.00000000 12.74626769
  35.85947358  0.00000000 10.25178770
  36.70239011  1.45500004  7.99763585
  36.70193735  1.45500004 15.00029548
  38.37901251  1.45500004 12.74556081
  38.37920314  1.45500004 10.25186173
  39.22340070  0.00000000  7.99813594
  39.22227623  0.00000000 14.99920234
  40.89870781  0.00000000 12.74440600
  40.89908572  0.00000000 10.25264309
  41.74443430  1.45500004  8.00046324
  41.74265330  1.45500004 14.99703282
  43.41894505  1.45500004 12.74257528
  43.41956148  1.45500004 10.25622351
  44.26458256  0.00000000  8.00760421
  44.26245662  0.00000000 14.99164365
  45.94422875  0.00000000 12.73619328
  45.94521703  0.00000000 10.26450057
  46.78029466  1.45500004  8.02501026
  46.77794064  1.45500004 14.97607516
  48.47511687  1.45500004 12.72368321
  48.47601159  1.45500004 10.27820816
  49.27825837  0.00000000  8.01215394
  49.27567524  0.00000000 14.98978726
  50.89776831  0.00000000 12.75502517
  50.89851356  0.00000000 10.24692666
  51.75275057  1.45500004  7.99447875
  51.74960260  1.45500004 15.00799594
   3.07986233  1.45500004 14.54294007
   3.08010109  1.45500004  8.45330491
   5.63311955  0.00000000 14.48725068
   5.63333982  0.00000000  8.50911919
   8.15509651  1.45500004 14.48735342
   8.15518911  1.45500004  8.50895151
  10.67424653  0.00000000 14.49101011
  10.67437190  0.00000000  8.50522830
  13.19304320  1.45500004 14.49215062
  13.19319200  1.45500004  8.50380200
  15.71175158  0.00000000 14.49285691
  15.71188893  0.00000000  8.50332650
  18.23032257  1.45500004 14.49312883
  18.23043413  1.45500004  8.50275654
  20.74863057  0.00000000 14.49330944
  20.74878949  0.00000000  8.50259251
  23.26705955  1.45500004 14.49326088
  23.26725236  1.45500004  8.50287842
  25.78588865  0.00000000 14.49321508
  25.78597480  0.00000000  8.50320351
  28.30505046  1.45500004 14.49320617
  28.30509726  1.45500004  8.50336654
  30.82444963  0.00000000 14.49365929
  30.82462463  0.00000000  8.50386035
  33.34438588  1.45500004 14.49398575
  33.34454262  1.45500004  8.50407514
  35.86455989  0.00000000 14.49418097
  35.86480542  0.00000000  8.50401718
  38.38479159  1.45500004 14.49374567
  38.38568739  1.45500004  8.50374073
  40.90554008  0.00000000 14.49324153
  40.90708609  0.00000000  8.50375059
  43.42763028  1.45500004 14.49304196
  43.42934543  1.45500004  8.50559339
  45.95190437  0.00000000 14.49188022
  45.95390092  0.00000000  8.50878459
  48.48517342  1.45500004 14.50214542
  48.48733358  1.45500004  8.49960979
  51.03132141  0.00000000 14.52588659
  51.03394170  0.00000000  8.47620671
 


--------------------------------------------------------------------------------------------------------


 k-point  1 :   0.0000 0.0000 0.0000  plane waves:  145155
 k-point  2 :   0.0000 0.0128 0.0000  plane waves:  145099
 k-point  3 :   0.0000 0.0256 0.0000  plane waves:  145117
 k-point  4 :   0.0000 0.0385 0.0000  plane waves:  145039
 k-point  5 :   0.0000 0.0513 0.0000  plane waves:  145037
 k-point  6 :   0.0000 0.0641 0.0000  plane waves:  145023
 k-point  7 :   0.0000 0.0769 0.0000  plane waves:  144995
 k-point  8 :   0.0000 0.0897 0.0000  plane waves:  145017
 k-point  9 :   0.0000 0.1026 0.0000  plane waves:  144975
 k-point 10 :   0.0000 0.1154 0.0000  plane waves:  144985
 k-point 11 :   0.0000 0.1282 0.0000  plane waves:  144971
 k-point 12 :   0.0000 0.1410 0.0000  plane waves:  144925
 k-point 13 :   0.0000 0.1538 0.0000  plane waves:  144909
 k-point 14 :   0.0000 0.1667 0.0000  plane waves:  144867
 k-point 15 :   0.0000 0.1795 0.0000  plane waves:  144879
 k-point 16 :   0.0000 0.1923 0.0000  plane waves:  144890
 k-point 17 :   0.0000 0.2051 0.0000  plane waves:  144894
 k-point 18 :   0.0000 0.2179 0.0000  plane waves:  144948
 k-point 19 :   0.0000 0.2308 0.0000  plane waves:  144978
 k-point 20 :   0.0000 0.2436 0.0000  plane waves:  145074
 k-point 21 :   0.0000 0.2564 0.0000  plane waves:  145106
 k-point 22 :   0.0000 0.2692 0.0000  plane waves:  145118
 k-point 23 :   0.0000 0.2821 0.0000  plane waves:  145172
 k-point 24 :   0.0000 0.2949 0.0000  plane waves:  145162
 k-point 25 :   0.0000 0.3077 0.0000  plane waves:  145230
 k-point 26 :   0.0000 0.3205 0.0000  plane waves:  145282
 k-point 27 :   0.0000 0.3333 0.0000  plane waves:  145302
 k-point 28 :   0.0000 0.3462 0.0000  plane waves:  145332
 k-point 29 :   0.0000 0.3590 0.0000  plane waves:  145314
 k-point 30 :   0.0000 0.3718 0.0000  plane waves:  145358
 k-point 31 :   0.0000 0.3846 0.0000  plane waves:  145372
 k-point 32 :   0.0000 0.3974 0.0000  plane waves:  145422
 k-point 33 :   0.0000 0.4103 0.0000  plane waves:  145486
 k-point 34 :   0.0000 0.4231 0.0000  plane waves:  145506
 k-point 35 :   0.0000 0.4359 0.0000  plane waves:  145518
 k-point 36 :   0.0000 0.4487 0.0000  plane waves:  145476
 k-point 37 :   0.0000 0.4615 0.0000  plane waves:  145534
 k-point 38 :   0.0000 0.4744 0.0000  plane waves:  145580
 k-point 39 :   0.0000 0.4872 0.0000  plane waves:  145568
 k-point 40 :   0.0000 0.5000 0.0000  plane waves:  145484

 maximum and minimum number of plane-waves per node :    145580   144867

 maximum number of plane-waves:    145580
 maximum index in each direction: 
   IXMAX=  129   IYMAX=    5   IZMAX=   45
   IXMIN= -129   IYMIN=   -6   IZMIN=  -45

 NGX is ok and might be reduce to 518
 NGY is ok and might be reduce to  24
 NGZ is ok and might be reduce to 182

 serial   3D FFT for wavefunctions
 parallel 3D FFT for charge:
    minimum data exchange during FFTs selected (reduces bandwidth)


 total amount of memory used by VASP on root node  2649229. kBytes
========================================================================

   base      :      30000. kBytes
   nonlr-proj:      96624. kBytes
   fftplans  :      24492. kBytes
   grid      :     236945. kBytes
   one-center:       4354. kBytes
   wavefun   :    2256814. kBytes
 
     INWAV:  cpu time    0.0010: real time    0.2119
 initial charge density was supplied:
 number of electron     839.9999960 magnetization       4.7774889
 keeping initial charge density in first step


--------------------------------------------------------------------------------------------------------


 Maximum index for non-local projection operator         9697
 Maximum index for augmentation-charges         1011 (set IRDMAX)


--------------------------------------------------------------------------------------------------------


 First call to EWALD:  gamma=   0.109
 Maximum number of real-space cells 1x13x 2
 Maximum number of reciprocal cells 9x 1x 4

 FEWALD executed in parallel
    FEWALD:  cpu time    0.3529: real time    0.5567


----------------------------------------- Iteration    1(   1)  ---------------------------------------


    POTLOK:  cpu time   12.8670: real time   24.1896
    SETDIJ:  cpu time    1.7217: real time    3.3227
     EDDAV:  cpu time 4264.9006: real time 4799.8080
       DOS:  cpu time    0.4499: real time    1.0305
    --------------------------------------------
      LOOP:  cpu time 4279.9503: real time 4828.9654

 eigenvalue-minimisations  :103968
 total energy-change (2. order) : 0.7267133E+04  (-0.4316758E+05)
 number of electron     839.9999960 magnetization       4.7774889
 augmentation part      839.9999960 magnetization       4.7774889

 Free energy of the ion-electron system (eV)
  ---------------------------------------------------
  alpha Z        PSCENC =       906.18543316
  Ewald energy   TEWEN  =    548840.51088000
  -Hartree energ DENC   =   -604607.06497707
  -exchange      EXHF   =         0.00000000
  -V(xc)+E(xc)   XCENC  =      2650.39834971
  PAW double counting   =    115428.27647445  -114559.41513988
  entropy T*S    EENTRO =        -0.00928591
  eigenvalues    EBANDS =     -3923.12585192
  atomic energy  EATOM  =     62531.37739984
  Solvation  Ediel_sol  =         0.00000000
  ---------------------------------------------------
  free energy    TOTEN  =      7267.13328239 eV

  energy without entropy =     7267.14256829  energy(sigma->0) =     7267.13792534


--------------------------------------------------------------------------------------------------------




----------------------------------------- Iteration    1(   2)  ---------------------------------------


     EDDAV:  cpu time 4989.2165: real time 5460.1783
       DOS:  cpu time    0.0860: real time    0.1935
    --------------------------------------------
      LOOP:  cpu time 4989.4165: real time 5460.9259

 eigenvalue-minimisations  :120144
 total energy-change (2. order) :-0.7644699E+04  (-0.7269829E+04)
 number of electron     839.9999960 magnetization       4.7774889
 augmentation part      839.9999960 magnetization       4.7774889

 Free energy of the ion-electron system (eV)
  ---------------------------------------------------
  alpha Z        PSCENC =       906.18543316
  Ewald energy   TEWEN  =    548840.51088000
  -Hartree energ DENC   =   -604607.06497707
  -exchange      EXHF   =         0.00000000
  -V(xc)+E(xc)   XCENC  =      2650.39834971
  PAW double counting   =    115428.27647445  -114559.41513988
  entropy T*S    EENTRO =        -0.00196758
  eigenvalues    EBANDS =    -11567.83259929
  atomic energy  EATOM  =     62531.37739984
  Solvation  Ediel_sol  =         0.00000000
  ---------------------------------------------------
  free energy    TOTEN  =      -377.56614665 eV

  energy without entropy =     -377.56417907  energy(sigma->0) =     -377.56516286


--------------------------------------------------------------------------------------------------------




----------------------------------------- Iteration    1(   3)  ---------------------------------------


     EDDAV:  cpu time 4308.3670: real time 4671.2280
       DOS:  cpu time    1.5288: real time    1.5779
    --------------------------------------------
      LOOP:  cpu time 4309.9198: real time 4673.2316

 eigenvalue-minimisations  :113760
 total energy-change (2. order) :-0.8101206E+03  (-0.7935971E+03)
 number of electron     839.9999960 magnetization       4.7774889
 augmentation part      839.9999960 magnetization       4.7774889

 Free energy of the ion-electron system (eV)
  ---------------------------------------------------
  alpha Z        PSCENC =       906.18543316
  Ewald energy   TEWEN  =    548840.51088000
  -Hartree energ DENC   =   -604607.06497707
  -exchange      EXHF   =         0.00000000
  -V(xc)+E(xc)   XCENC  =      2650.39834971
  PAW double counting   =    115428.27647445  -114559.41513988
  entropy T*S    EENTRO =        -0.00307450
  eigenvalues    EBANDS =    -12377.95204551
  atomic energy  EATOM  =     62531.37739984
  Solvation  Ediel_sol  =         0.00000000
  ---------------------------------------------------
  free energy    TOTEN  =     -1187.68669978 eV

  energy without entropy =    -1187.68362529  energy(sigma->0) =    -1187.68516254


--------------------------------------------------------------------------------------------------------




----------------------------------------- Iteration    1(   4)  ---------------------------------------


     EDDAV:  cpu time 4736.8219: real time 5325.3322
       DOS:  cpu time    0.1450: real time    0.1683
    --------------------------------------------
      LOOP:  cpu time 4737.0659: real time 5325.8022

 eigenvalue-minimisations  :118032
 total energy-change (2. order) :-0.3210118E+02  (-0.3179496E+02)
 number of electron     839.9999960 magnetization       4.7774889
 augmentation part      839.9999960 magnetization       4.7774889

 Free energy of the ion-electron system (eV)
  ---------------------------------------------------
  alpha Z        PSCENC =       906.18543316
  Ewald energy   TEWEN  =    548840.51088000
  -Hartree energ DENC   =   -604607.06497707
  -exchange      EXHF   =         0.00000000
  -V(xc)+E(xc)   XCENC  =      2650.39834971
  PAW double counting   =    115428.27647445  -114559.41513988
  entropy T*S    EENTRO =        -0.00275959
  eigenvalues    EBANDS =    -12410.05354451
  atomic energy  EATOM  =     62531.37739984
  Solvation  Ediel_sol  =         0.00000000
  ---------------------------------------------------
  free energy    TOTEN  =     -1219.78788388 eV

  energy without entropy =    -1219.78512429  energy(sigma->0) =    -1219.78650409


--------------------------------------------------------------------------------------------------------




----------------------------------------- Iteration    1(   5)  ---------------------------------------


     EDDAV:  cpu time 4771.3426: real time 5149.0127
       DOS:  cpu time    1.7627: real time    1.9823
    --------------------------------------------
      LOOP:  cpu time 4773.1134: real time 5151.3258

 eigenvalue-minimisations  :117264
 total energy-change (2. order) :-0.9666817E+00  (-0.9634345E+00)
 number of electron     839.9999960 magnetization       4.7774889
 augmentation part      839.9999960 magnetization       4.7774889

 Free energy of the ion-electron system (eV)
  ---------------------------------------------------
  alpha Z        PSCENC =       906.18543316
  Ewald energy   TEWEN  =    548840.51088000
  -Hartree energ DENC   =   -604607.06497707
  -exchange      EXHF   =         0.00000000
  -V(xc)+E(xc)   XCENC  =      2650.39834971
  PAW double counting   =    115428.27647445  -114559.41513988
  entropy T*S    EENTRO =        -0.00274355
  eigenvalues    EBANDS =    -12411.02024229
  atomic energy  EATOM  =     62531.37739984
  Solvation  Ediel_sol  =         0.00000000
  ---------------------------------------------------
  free energy    TOTEN  =     -1220.75456563 eV

  energy without entropy =    -1220.75182207  energy(sigma->0) =    -1220.75319385


--------------------------------------------------------------------------------------------------------




----------------------------------------- Iteration    1(   6)  ---------------------------------------


     EDDAV:  cpu time 4621.6024: real time 4945.3125
       DOS:  cpu time    0.1510: real time    0.3664
    --------------------------------------------
      LOOP:  cpu time 4621.8424: real time 4946.1430

 eigenvalue-minimisations  :122208
 total energy-change (2. order) :-0.4470968E-01  (-0.4469162E-01)
 number of electron     839.9999960 magnetization       4.7774889
 augmentation part      839.9999960 magnetization       4.7774889

 Free energy of the ion-electron system (eV)
  ---------------------------------------------------
  alpha Z        PSCENC =       906.18543316
  Ewald energy   TEWEN  =    548840.51088000
  -Hartree energ DENC   =   -604607.06497707
  -exchange      EXHF   =         0.00000000
  -V(xc)+E(xc)   XCENC  =      2650.39834971
  PAW double counting   =    115428.27647445  -114559.41513988
  entropy T*S    EENTRO =        -0.00274314
  eigenvalues    EBANDS =    -12411.06495238
  atomic energy  EATOM  =     62531.37739984
  Solvation  Ediel_sol  =         0.00000000
  ---------------------------------------------------
  free energy    TOTEN  =     -1220.79927530 eV

  energy without entropy =    -1220.79653216  energy(sigma->0) =    -1220.79790373


--------------------------------------------------------------------------------------------------------




----------------------------------------- Iteration    1(   7)  ---------------------------------------


     EDDAV:  cpu time 4504.0833: real time 5279.6024
       DOS:  cpu time    0.1360: real time    0.4778
    --------------------------------------------
      LOOP:  cpu time 4504.2513: real time 5280.3300

 eigenvalue-minimisations  :119712
 total energy-change (2. order) :-0.1619323E-02  (-0.1618985E-02)
 number of electron     839.9999960 magnetization       4.7774889
 augmentation part      839.9999960 magnetization       4.7774889

 Free energy of the ion-electron system (eV)
  ---------------------------------------------------
  alpha Z        PSCENC =       906.18543316
  Ewald energy   TEWEN  =    548840.51088000
  -Hartree energ DENC   =   -604607.06497707
  -exchange      EXHF   =         0.00000000
  -V(xc)+E(xc)   XCENC  =      2650.39834971
  PAW double counting   =    115428.27647445  -114559.41513988
  entropy T*S    EENTRO =        -0.00274313
  eigenvalues    EBANDS =    -12411.06657171
  atomic energy  EATOM  =     62531.37739984
  Solvation  Ediel_sol  =         0.00000000
  ---------------------------------------------------
  free energy    TOTEN  =     -1220.80089463 eV

  energy without entropy =    -1220.79815150  energy(sigma->0) =    -1220.79952306


--------------------------------------------------------------------------------------------------------




----------------------------------------- Iteration    1(   8)  ---------------------------------------


     EDDAV:  cpu time 4931.1134: real time 5554.7747
       DOS:  cpu time    0.6809: real time    1.0566
    --------------------------------------------
      LOOP:  cpu time 4931.8592: real time 5556.1255

 eigenvalue-minimisations  :118656
 total energy-change (2. order) :-0.9268007E-04  (-0.9264243E-04)
 number of electron     839.9999960 magnetization       4.7774889
 augmentation part      839.9999960 magnetization       4.7774889

 Free energy of the ion-electron system (eV)
  ---------------------------------------------------
  alpha Z        PSCENC =       906.18543316
  Ewald energy   TEWEN  =    548840.51088000
  -Hartree energ DENC   =   -604607.06497707
  -exchange      EXHF   =         0.00000000
  -V(xc)+E(xc)   XCENC  =      2650.39834971
  PAW double counting   =    115428.27647445  -114559.41513988
  entropy T*S    EENTRO =        -0.00274313
  eigenvalues    EBANDS =    -12411.06666440
  atomic energy  EATOM  =     62531.37739984
  Solvation  Ediel_sol  =         0.00000000
  ---------------------------------------------------
  free energy    TOTEN  =     -1220.80098731 eV

  energy without entropy =    -1220.79824418  energy(sigma->0) =    -1220.79961574


--------------------------------------------------------------------------------------------------------




----------------------------------------- Iteration    1(   9)  ---------------------------------------


     EDDAV:  cpu time 4316.5908: real time 4903.9849
       DOS:  cpu time    0.3429: real time    0.3510
    --------------------------------------------
      LOOP:  cpu time 4317.0657: real time 4904.6879

 eigenvalue-minimisations  : 99264
 total energy-change (2. order) :-0.3657275E-05  (-0.3622430E-05)
 number of electron     839.9999960 magnetization       4.7774889
 augmentation part      839.9999960 magnetization       4.7774889

 Free energy of the ion-electron system (eV)
  ---------------------------------------------------
  alpha Z        PSCENC =       906.18543316
  Ewald energy   TEWEN  =    548840.51088000
  -Hartree energ DENC   =   -604607.06497707
  -exchange      EXHF   =         0.00000000
  -V(xc)+E(xc)   XCENC  =      2650.39834971
  PAW double counting   =    115428.27647445  -114559.41513988
  entropy T*S    EENTRO =        -0.00274313
  eigenvalues    EBANDS =    -12411.06666805
  atomic energy  EATOM  =     62531.37739984
  Solvation  Ediel_sol  =         0.00000000
  ---------------------------------------------------
  free energy    TOTEN  =     -1220.80099096 eV

  energy without entropy =    -1220.79824783  energy(sigma->0) =    -1220.79961940


--------------------------------------------------------------------------------------------------------




 average (electrostatic) potential at core
  the test charge radii are     1.0818  0.7089  0.9892
  (the norm of the test charge is              1.0000)
       1 -82.9437       2 -83.4570       3 -83.3748       4 -83.3021       5 -83.2438
       6 -83.1924       7 -83.1405       8 -83.0898       9 -83.0404      10 -82.9930
      11 -82.9452      12 -82.8976      13 -82.8534      14 -82.8053      15 -82.7574
      16 -82.7105      17 -82.6674      18 -82.6222      19 -82.6446      20 -82.8910
      21 -70.0993      22 -70.0988      23 -69.8745      24 -69.8745      25 -69.9381
      26 -69.9388      27 -69.9547      28 -69.9509      29 -69.8871      30 -69.8884
      31 -69.9763      32 -69.9747      33 -69.8281      34 -69.8274      35 -69.9445
      36 -69.9438      37 -69.7751      38 -69.7737      39 -69.8988      40 -69.8993
      41 -69.7256      42 -69.7251      43 -69.8500      44 -69.8493      45 -69.6734
      46 -69.6725      47 -69.8015      48 -69.8018      49 -69.6251      50 -69.6233
      51 -69.7513      52 -69.7538      53 -69.5747      54 -69.5741      55 -69.7027
      56 -69.7037      57 -69.5275      58 -69.5284      59 -69.6541      60 -69.6544
      61 -69.4786      62 -69.4779      63 -69.6062      64 -69.6071      65 -69.4330
      66 -69.4322      67 -69.5585      68 -69.5602      69 -69.3871      70 -69.3868
      71 -69.5110      72 -69.5131      73 -69.3375      74 -69.3371      75 -69.4609
      76 -69.4627      77 -69.2904      78 -69.2895      79 -69.4077      80 -69.4085
      81 -69.2412      82 -69.2402      83 -69.3411      84 -69.3407      85 -69.1869
      86 -69.1868      87 -69.2312      88 -69.2312      89 -69.1301      90 -69.1295
      91 -68.9979      92 -68.9981      93 -69.0239      94 -69.0239      95 -68.4842
      96 -68.4846      97 -68.6073      98 -68.6083      99 -67.6023     100 -67.6022
     101 -90.9390     102 -90.9373     103 -91.2688     104 -91.2719     105 -91.3198
     106 -91.3228     107 -91.3081     108 -91.3089     109 -91.2694     110 -91.2692
     111 -91.2223     112 -91.2218     113 -91.1724     114 -91.1729     115 -91.1261
     116 -91.1237     117 -91.0759     118 -91.0738     119 -91.0270     120 -91.0269
     121 -90.9784     122 -90.9781     123 -90.9334     124 -90.9317     125 -90.8869
     126 -90.8839     127 -90.8372     128 -90.8366     129 -90.7855     130 -90.7853
     131 -90.7260     132 -90.7261     133 -90.6362     134 -90.6360     135 -90.4605
     136 -90.4611     137 -90.0561     138 -90.0557     139 -88.9575     140 -88.9586
 
 
 
 E-fermi :  -0.6604     XC(G=0):  -4.3135     alpha+bet : -5.2393


 spin component 1

 k-point     1 :       0.0000    0.0000    0.0000
  band No.  band energies     occupation 
      1     -62.7828      1.00000
      2     -62.6555      1.00000
      3     -62.5730      1.00000
      4     -62.5119      1.00000
      5     -62.4583      1.00000
      6     -62.4067      1.00000
      7     -62.3561      1.00000
      8     -62.3249      1.00000
      9     -62.3069      1.00000
     10     -62.2588      1.00000
     11     -62.2111      1.00000
     12     -62.1643      1.00000
     13     -62.1399      1.00000
     14     -62.1180      1.00000
     15     -62.0711      1.00000
     16     -62.0236      1.00000
     17     -61.9777      1.00000
     18     -61.9470      1.00000
     19     -61.9208      1.00000
     20     -61.8620      1.00000
     21     -37.2295      1.00000
     22     -37.0814      1.00000
     23     -36.9694      1.00000
     24     -36.8868      1.00000
     25     -36.8742      1.00000
     26     -36.7898      1.00000
     27     -36.7403      1.00000
     28     -36.7136      1.00000
     29     -36.6591      1.00000
     30     -36.6543      1.00000
     31     -36.6436      1.00000
     32     -36.5897      1.00000
     33     -36.5822      1.00000
     34     -36.5413      1.00000
     35     -36.5369      1.00000
     36     -36.5331      1.00000
     37     -36.5288      1.00000
     38     -36.4933      1.00000
     39     -36.4811      1.00000
     40     -36.4556      1.00000
     41     -36.4345      1.00000
     42     -36.4307      1.00000
     43     -36.4015      1.00000
     44     -36.3920      1.00000
     45     -36.3815      1.00000
     46     -36.3576      1.00000
     47     -36.3356      1.00000
     48     -36.3328      1.00000
     49     -36.2939      1.00000
     50     -36.2853      1.00000
     51     -36.2836      1.00000
     52     -36.2386      1.00000
     53     -36.2332      1.00000
     54     -36.2273      1.00000
     55     -36.2272      1.00000
     56     -36.1911      1.00000
     57     -36.1839      1.00000
     58     -36.1570      1.00000
     59     -36.1449      1.00000
     60     -36.1351      1.00000
     61     -36.0992      1.00000
     62     -36.0876      1.00000
     63     -36.0799      1.00000
     64     -36.0797      1.00000
     65     -36.0599      1.00000
     66     -36.0408      1.00000
     67     -36.0323      1.00000
     68     -35.9930      1.00000
     69     -35.9922      1.00000
     70     -35.9837      1.00000
     71     -35.9463      1.00000
     72     -35.9187      1.00000
     73     -35.9153      1.00000
     74     -35.8990      1.00000
     75     -35.8895      1.00000
     76     -35.8518      1.00000
     77     -35.8043      1.00000
     78     -35.7614      1.00000
     79     -35.7530      1.00000
     80     -35.6863      1.00000
     81     -19.8672      1.00000
     82     -19.7708      1.00000
     83     -19.6995      1.00000
     84     -19.6064      1.00000
     85     -19.5608      1.00000
     86     -19.4700      1.00000
     87     -19.4378      1.00000
     88     -19.3490      1.00000
     89     -19.3195      1.00000
     90     -19.2332      1.00000
     91     -19.1948      1.00000
     92     -19.1118      1.00000
     93     -19.0573      1.00000
     94     -18.9785      1.00000
     95     -18.9057      1.00000
     96     -18.8317      1.00000
     97     -18.7415      1.00000
     98     -18.6728      1.00000
     99     -18.5668      1.00000
    100     -18.5039      1.00000
    101     -18.3833      1.00000
    102     -18.3269      1.00000
    103     -18.1945      1.00000
    104     -18.1451      1.00000
    105     -18.0037      1.00000
    106     -17.9622      1.00000
    107     -17.8166      1.00000
    108     -17.7843      1.00000
    109     -17.6404      1.00000
    110     -17.6195      1.00000
    111     -17.4790      1.00000
    112     -17.4697      1.00000
    113     -17.3164      1.00000
    114     -17.3125      1.00000
    115     -17.1969      1.00000
    116     -17.1281      1.00000
    117     -17.1259      1.00000
    118     -17.0398      1.00000
    119     -16.9144      1.00000
    120     -16.8786      1.00000
    121     -16.8716      1.00000
    122     -16.8072      1.00000
    123     -16.7115      1.00000
    124     -16.6223      1.00000
    125     -16.5364      1.00000
    126     -16.4520      1.00000
    127     -16.3694      1.00000
    128     -16.2894      1.00000
    129     -16.2091      1.00000
    130     -16.1293      1.00000
    131     -16.0763      1.00000
    132     -16.0505      1.00000
    133     -15.9701      1.00000
    134     -15.9504      1.00000
    135     -15.9237      1.00000
    136     -15.9040      1.00000
    137     -15.9031      1.00000
    138     -15.8845      1.00000
    139     -15.8665      1.00000
    140     -15.8181      1.00000
    141     -15.8080      1.00000
    142     -15.7961      1.00000
    143     -15.7681      1.00000
    144     -15.7188      1.00000
    145     -15.6990      1.00000
    146     -15.6699      1.00000
    147     -15.6218      1.00000
    148     -15.5890      1.00000
    149     -15.5731      1.00000
    150     -15.5247      1.00000
    151     -15.4766      1.00000
    152     -15.4257      1.00000
    153     -15.4029      1.00000
    154     -15.3722      1.00000
    155     -15.3131      1.00000
    156     -15.2363      1.00000
    157     -15.1137      1.00000
    158     -14.8375      1.00000
    159     -14.6942      1.00000
    160     -14.0603      1.00000
    161     -11.0328      1.00000
    162     -10.9331      1.00000
    163     -10.7869      1.00000
    164     -10.6821      1.00000
    165     -10.5804      1.00000
    166     -10.4661      1.00000
    167     -10.3649      1.00000
    168     -10.2314      1.00000
    169     -10.1188      1.00000
    170      -9.9553      1.00000
    171      -9.8492      1.00000
    172      -9.7256      1.00000
    173      -9.6393      1.00000
    174      -9.5803      1.00000
    175      -9.5622      1.00000
    176      -9.4388      1.00000
    177      -9.3589      1.00000
    178      -9.3347      1.00000
    179      -9.2910      1.00000
    180      -9.2568      1.00000
    181      -9.1867      1.00000
    182      -9.1105      1.00000
    183      -9.0286      1.00000
    184      -8.9290      1.00000
    185      -8.9178      1.00000
    186      -8.8191      1.00000
    187      -8.6196      1.00000
    188      -8.5273      1.00000
    189      -8.4862      1.00000
    190      -8.4159      1.00000
    191      -8.3149      1.00000
    192      -8.2193      1.00000
    193      -8.1295      1.00000
    194      -8.1253      1.00000
    195      -8.0343      1.00000
[...]
     31.66172      1.45500     15.00044        -0.006691      0.000000     -0.009188
     33.33987      1.45500     12.74622         0.006694      0.000000      0.007409
     33.33985      1.45500     10.25174         0.009056      0.000000     -0.004449
     34.18204      0.00000      7.99759        -0.004376      0.000000      0.009231
     34.18190      0.00000     15.00058        -0.012467      0.000000     -0.009400
     35.85946      0.00000     12.74627         0.007406      0.000000      0.007490
     35.85947      0.00000     10.25179         0.005123      0.000000     -0.005847
     36.70239      1.45500      7.99764        -0.006843      0.000000      0.010167
     36.70194      1.45500     15.00030        -0.006872      0.000000     -0.008240
     38.37901      1.45500     12.74556         0.006474      0.000000      0.010008
     38.37920      1.45500     10.25186         0.004259      0.000000     -0.008084
     39.22340      0.00000      7.99814        -0.008864      0.000000      0.009747
     39.22228      0.00000     14.99920        -0.007923      0.000000     -0.009408
     40.89871      0.00000     12.74441         0.002713      0.000000      0.010446
     40.89909      0.00000     10.25264         0.005531      0.000000     -0.006465
     41.74443      1.45500      8.00046        -0.008863      0.000000      0.009021
     41.74265      1.45500     14.99703        -0.009779      0.000000     -0.008761
     43.41895      1.45500     12.74258         0.004867      0.000000      0.001205
     43.41956      1.45500     10.25622         0.005826      0.000000     -0.008146
     44.26458      0.00000      8.00760         0.001331      0.000000      0.012582
     44.26246      0.00000     14.99164        -0.003459      0.000000     -0.009740
     45.94423      0.00000     12.73619         0.005871      0.000000     -0.016992
     45.94522      0.00000     10.26450         0.001226      0.000000      0.010717
     46.78029      1.45500      8.02501        -0.009724      0.000000      0.006348
     46.77794      1.45500     14.97608        -0.005920      0.000000     -0.006943
     48.47512      1.45500     12.72368         0.008049      0.000000     -0.018087
     48.47601      1.45500     10.27821         0.006450      0.000000      0.014124
     49.27826      0.00000      8.01215        -0.028617      0.000000      0.001597
     49.27568      0.00000     14.98979        -0.027726      0.000000      0.000166
     50.89777      0.00000     12.75503         0.005240      0.000000      0.005069
     50.89851      0.00000     10.24693         0.006325      0.000000     -0.003898
     51.75275      1.45500      7.99448         0.001875      0.000000      0.000042
     51.74960      1.45500     15.00800         0.006261      0.000000      0.002729
      3.07986      1.45500     14.54294         0.018801      0.000000      0.013814
      3.08010      1.45500      8.45330         0.016205      0.000000     -0.014900
      5.63312      0.00000     14.48725         0.003648      0.000000      0.008221
      5.63334      0.00000      8.50912        -0.001095      0.000000     -0.005944
      8.15510      1.45500     14.48735         0.004077      0.000000      0.010640
      8.15519      1.45500      8.50895         0.004692      0.000000     -0.008269
     10.67425      0.00000     14.49101         0.002796      0.000000      0.009035
     10.67437      0.00000      8.50523         0.003697      0.000000     -0.007173
     13.19304      1.45500     14.49215         0.007490      0.000000      0.010310
     13.19319      1.45500      8.50380         0.008959      0.000000     -0.009068
     15.71175      0.00000     14.49286         0.005900      0.000000      0.009850
     15.71189      0.00000      8.50333         0.004994      0.000000     -0.007851
     18.23032      1.45500     14.49313         0.006672      0.000000      0.006877
     18.23043      1.45500      8.50276         0.008106      0.000000     -0.005705
     20.74863      0.00000     14.49331         0.003656      0.000000      0.004475
     20.74879      0.00000      8.50259         0.008397      0.000000     -0.006652
     23.26706      1.45500     14.49326         0.012772      0.000000      0.006883
     23.26725      1.45500      8.50288         0.012627      0.000000     -0.010545
     25.78589      0.00000     14.49322         0.009549      0.000000      0.006732
     25.78597      0.00000      8.50320         0.007813      0.000000     -0.010436
     28.30505      1.45500     14.49321         0.008036      0.000000      0.009161
     28.30510      1.45500      8.50337         0.009283      0.000000     -0.009373
     30.82445      0.00000     14.49366         0.005210      0.000000      0.009291
     30.82462      0.00000      8.50386         0.004930      0.000000     -0.010024
     33.34439      1.45500     14.49399         0.008785      0.000000      0.009549
     33.34454      1.45500      8.50408         0.007894      0.000000     -0.010540
     35.86456      0.00000     14.49418         0.008891      0.000000      0.006482
     35.86481      0.00000      8.50402         0.011295      0.000000     -0.011096
     38.38479      1.45500     14.49375         0.011585      0.000000      0.007089
     38.38569      1.45500      8.50374         0.007492      0.000000     -0.007780
     40.90554      0.00000     14.49324         0.008012      0.000000      0.007210
     40.90709      0.00000      8.50375         0.002076      0.000000     -0.007104
     43.42763      1.45500     14.49304         0.009059      0.000000      0.011475
     43.42935      1.45500      8.50559         0.007534      0.000000     -0.010925
     45.95190      0.00000     14.49188         0.005888      0.000000      0.018755
     45.95390      0.00000      8.50878         0.002907      0.000000     -0.020394
     48.48517      1.45500     14.50215         0.023800      0.000000      0.027856
     48.48733      1.45500      8.49961         0.023735      0.000000     -0.029807
     51.03132      0.00000     14.52589        -0.032699      0.000000     -0.037518
     51.03394      0.00000      8.47621        -0.031511      0.000000      0.034671
 -----------------------------------------------------------------------------------
    total drift:                                0.015061     -0.000000     -0.009781


--------------------------------------------------------------------------------------------------------



  FREE ENERGIE OF THE ION-ELECTRON SYSTEM (eV)
  ---------------------------------------------------
  free  energy   TOTEN  =     -1220.80099096 eV

  energy  without entropy=    -1220.79824783  energy(sigma->0) =    -1220.79961940
 


--------------------------------------------------------------------------------------------------------


    POTLOK:  cpu time  145.2559: real time  169.0289


--------------------------------------------------------------------------------------------------------


     LOOP+:  cpu time52472.6859: real time**********
    4ORBIT:  cpu time    0.0010: real time    0.0457
 


 total charge     
 
# of ion     s       p       d       tot
----------------------------------------
  1        2.292   6.186   3.953  12.431
  2        2.303   6.271   3.882  12.456
  3        2.312   6.288   3.903  12.503
  4        2.313   6.290   3.912  12.515
  5        2.313   6.291   3.913  12.517
  6        2.313   6.291   3.915  12.520
  7        2.313   6.292   3.915  12.520
  8        2.313   6.292   3.915  12.520
  9        2.313   6.292   3.915  12.520
 10        2.313   6.292   3.916  12.521
 11        2.313   6.292   3.916  12.520
 12        2.313   6.292   3.915  12.520
 13        2.313   6.292   3.916  12.521
 14        2.313   6.292   3.915  12.520
 15        2.313   6.292   3.915  12.520
 16        2.313   6.292   3.915  12.521
 17        2.314   6.293   3.915  12.522
 18        2.315   6.294   3.914  12.524
 19        2.320   6.296   3.891  12.507
 20        2.329   6.292   3.792  12.413
 21        1.247   2.506   0.000   3.752
 22        1.247   2.505   0.000   3.752
 23        1.231   2.644   0.000   3.875
 24        1.231   2.644   0.000   3.875
 25        1.240   2.545   0.000   3.786
 26        1.240   2.545   0.000   3.786
 27        1.224   2.672   0.000   3.895
 28        1.224   2.671   0.000   3.895
 29        1.240   2.551   0.000   3.792
 30        1.240   2.551   0.000   3.792
 31        1.223   2.669   0.000   3.892
 32        1.223   2.669   0.000   3.892
 33        1.240   2.553   0.000   3.793
 34        1.240   2.552   0.000   3.792
 35        1.223   2.669   0.000   3.892
 36        1.223   2.669   0.000   3.892
 37        1.240   2.553   0.000   3.793
 38        1.240   2.553   0.000   3.793
 39        1.223   2.668   0.000   3.891
 40        1.223   2.668   0.000   3.891
 41        1.240   2.553   0.000   3.793
 42        1.240   2.553   0.000   3.793
 43        1.223   2.668   0.000   3.891
 44        1.223   2.668   0.000   3.891
 45        1.240   2.553   0.000   3.793
 46        1.240   2.553   0.000   3.793
 47        1.223   2.668   0.000   3.891
 48        1.223   2.668   0.000   3.891
 49        1.240   2.553   0.000   3.793
 50        1.240   2.553   0.000   3.793
 51        1.223   2.668   0.000   3.891
 52        1.223   2.668   0.000   3.891
 53        1.240   2.553   0.000   3.793
 54        1.240   2.553   0.000   3.793
 55        1.223   2.668   0.000   3.891
 56        1.223   2.668   0.000   3.891
 57        1.240   2.553   0.000   3.793
 58        1.240   2.553   0.000   3.793
 59        1.223   2.668   0.000   3.891
 60        1.223   2.668   0.000   3.891
 61        1.240   2.553   0.000   3.793
 62        1.240   2.553   0.000   3.793
 63        1.223   2.668   0.000   3.891
 64        1.223   2.668   0.000   3.891
 65        1.240   2.553   0.000   3.793
 66        1.240   2.553   0.000   3.793
 67        1.223   2.668   0.000   3.891
 68        1.223   2.668   0.000   3.891
 69        1.240   2.553   0.000   3.793
 70        1.240   2.553   0.000   3.793
 71        1.223   2.668   0.000   3.891
 72        1.223   2.668   0.000   3.891
 73        1.240   2.553   0.000   3.793
 74        1.240   2.553   0.000   3.793
 75        1.223   2.668   0.000   3.890
 76        1.223   2.668   0.000   3.891
 77        1.240   2.553   0.000   3.793
 78        1.240   2.553   0.000   3.793
 79        1.223   2.668   0.000   3.890
 80        1.223   2.668   0.000   3.891
 81        1.240   2.553   0.000   3.793
 82        1.240   2.553   0.000   3.793
 83        1.223   2.668   0.000   3.891
 84        1.223   2.668   0.000   3.891
 85        1.240   2.552   0.000   3.792
 86        1.240   2.552   0.000   3.792
 87        1.223   2.669   0.000   3.892
 88        1.223   2.669   0.000   3.892
 89        1.242   2.550   0.000   3.792
 90        1.242   2.550   0.000   3.792
 91        1.223   2.672   0.000   3.896
 92        1.223   2.672   0.000   3.896
 93        1.244   2.530   0.000   3.774
 94        1.244   2.530   0.000   3.774
 95        1.230   2.660   0.000   3.890
 96        1.230   2.661   0.000   3.891
 97        1.262   2.467   0.000   3.729
 98        1.262   2.467   0.000   3.729
 99        1.267   2.485   0.000   3.752
100        1.267   2.485   0.000   3.752
101        0.730   0.881   0.000   1.611
102        0.730   0.881   0.000   1.611
103        0.683   0.960   0.000   1.643
104        0.683   0.960   0.000   1.643
105        0.681   0.962   0.000   1.643
106        0.681   0.962   0.000   1.643
107        0.681   0.960   0.000   1.641
108        0.681   0.960   0.000   1.641
109        0.681   0.959   0.000   1.640
110        0.681   0.959   0.000   1.640
111        0.681   0.959   0.000   1.640
112        0.681   0.959   0.000   1.640
113        0.681   0.959   0.000   1.640
114        0.681   0.959   0.000   1.640
115        0.681   0.959   0.000   1.640
116        0.681   0.959   0.000   1.640
117        0.681   0.959   0.000   1.640
118        0.681   0.959   0.000   1.640
119        0.681   0.959   0.000   1.639
120        0.681   0.959   0.000   1.640
121        0.681   0.959   0.000   1.639
122        0.681   0.959   0.000   1.639
123        0.681   0.958   0.000   1.639
124        0.681   0.958   0.000   1.639
125        0.681   0.958   0.000   1.639
126        0.681   0.958   0.000   1.639
127        0.681   0.958   0.000   1.639
128        0.681   0.958   0.000   1.639
129        0.681   0.958   0.000   1.639
130        0.681   0.958   0.000   1.639
131        0.681   0.958   0.000   1.639
132        0.681   0.958   0.000   1.639
133        0.680   0.960   0.000   1.640
134        0.680   0.959   0.000   1.640
135        0.680   0.963   0.000   1.643
136        0.680   0.963   0.000   1.643
137        0.682   0.965   0.000   1.647
138        0.682   0.965   0.000   1.646
139        0.685   0.984   0.000   1.669
140        0.685   0.984   0.000   1.669
------------------------------------------------
tot      172.304 372.081  78.144 622.528
 


 magnetization (x)
 
# of ion     s       p       d       tot
----------------------------------------
  1        0.024   0.012   0.267   0.302
  2        0.006   0.006   0.183   0.194
  3        0.000   0.001   0.043   0.044
  4        0.000   0.000   0.006   0.006
  5        0.000   0.000   0.001   0.001
  6       -0.000  -0.000   0.000   0.000
  7       -0.000  -0.000   0.000  -0.000
  8       -0.000  -0.000  -0.000  -0.000
  9       -0.000  -0.000  -0.000  -0.000
 10       -0.000  -0.000   0.000   0.000
 11       -0.000  -0.000   0.000   0.000
 12        0.000  -0.000   0.000   0.000
 13        0.000   0.000   0.000   0.000
 14        0.000   0.000   0.000   0.000
 15        0.000   0.000  -0.000  -0.000
 16       -0.000   0.000  -0.002  -0.002
 17       -0.000  -0.000  -0.006  -0.006
 18       -0.000   0.000  -0.010  -0.010
 19        0.001   0.002   0.069   0.071
 20        0.001   0.003   0.050   0.053
 21        0.009   0.040   0.000   0.049
 22        0.009   0.040   0.000   0.049
 23        0.016   0.059   0.000   0.074
 24        0.016   0.059   0.000   0.074
 25        0.000   0.009   0.000   0.009
 26        0.000   0.009   0.000   0.009
 27        0.001   0.004   0.000   0.005
 28        0.001   0.004   0.000   0.005
 29        0.000   0.003   0.000   0.003
 30        0.000   0.003   0.000   0.003
 31        0.000   0.000   0.000   0.000
 32        0.000   0.000   0.000   0.000
 33        0.000   0.000   0.000   0.000
 34        0.000   0.000   0.000   0.000
 35        0.000   0.000   0.000   0.000
 36        0.000   0.000   0.000   0.000
 37        0.000   0.000   0.000   0.000
 38        0.000   0.000   0.000   0.000
 39        0.000   0.000   0.000   0.000
 40        0.000   0.000   0.000   0.000
 41        0.000   0.000   0.000   0.000
 42        0.000   0.000   0.000   0.000
 43        0.000   0.000   0.000   0.000
 44        0.000   0.000   0.000   0.000
 45        0.000   0.000   0.000   0.000
 46        0.000   0.000   0.000   0.000
 47        0.000   0.000   0.000   0.000
 48        0.000   0.000   0.000   0.000
 49        0.000   0.000   0.000   0.000
 50        0.000   0.000   0.000   0.000
 51        0.000   0.000   0.000   0.000
 52        0.000   0.000   0.000   0.000
 53        0.000   0.000   0.000   0.000
 54        0.000   0.000   0.000   0.000
 55        0.000   0.000   0.000   0.000
 56        0.000   0.000   0.000   0.000
 57        0.000   0.000   0.000   0.000
 58        0.000   0.000   0.000   0.000
 59        0.000   0.000   0.000   0.000
 60        0.000   0.000   0.000   0.000
 61        0.000   0.000   0.000   0.000
 62        0.000   0.000   0.000   0.000
 63        0.000   0.000   0.000   0.000
 64        0.000   0.000   0.000   0.000
 65       -0.000   0.000   0.000   0.000
 66       -0.000   0.000   0.000   0.000
 67       -0.000   0.000   0.000   0.000
 68       -0.000   0.000   0.000  -0.000
 69       -0.000  -0.000   0.000  -0.000
 70       -0.000  -0.000   0.000  -0.000
 71       -0.000  -0.000   0.000  -0.000
 72       -0.000  -0.000   0.000  -0.000
 73       -0.000  -0.000   0.000  -0.000
 74       -0.000  -0.000   0.000  -0.000
 75       -0.000  -0.000   0.000  -0.000
 76       -0.000  -0.000   0.000  -0.000
 77       -0.000  -0.000   0.000  -0.000
 78       -0.000  -0.000   0.000  -0.000
 79       -0.000  -0.000   0.000  -0.000
 80       -0.000  -0.000   0.000  -0.000
 81        0.000  -0.000   0.000  -0.000
 82        0.000  -0.000   0.000  -0.000
 83       -0.000  -0.000   0.000  -0.000
 84       -0.000  -0.000   0.000  -0.000
 85        0.000  -0.000   0.000  -0.000
 86        0.000  -0.000   0.000  -0.000
 87       -0.000   0.000   0.000   0.000
 88       -0.000   0.000   0.000   0.000
 89        0.000   0.000   0.000   0.000
 90        0.000   0.000   0.000   0.000
 91        0.000   0.003   0.000   0.003
 92        0.000   0.003   0.000   0.003
 93        0.000   0.017   0.000   0.017
 94        0.000   0.017   0.000   0.017
 95        0.002   0.043   0.000   0.045
 96        0.002   0.043   0.000   0.045
 97        0.011   0.238   0.000   0.250
 98        0.011   0.238   0.000   0.250
 99        0.011   0.362   0.000   0.372
100        0.011   0.362   0.000   0.373
101        0.083   0.166   0.000   0.248
102        0.083   0.166   0.000   0.248
103        0.005   0.015   0.000   0.020
104        0.005   0.015   0.000   0.020
105        0.000   0.002   0.000   0.002
106        0.000   0.002   0.000   0.002
107        0.000   0.000   0.000   0.000
108        0.000   0.000   0.000   0.000
109        0.000   0.000   0.000   0.000
110        0.000   0.000   0.000   0.000
111        0.000   0.000   0.000   0.000
112        0.000   0.000   0.000   0.000
113        0.000   0.000   0.000   0.000
114        0.000   0.000   0.000   0.000
115        0.000  -0.000   0.000  -0.000
116        0.000  -0.000   0.000  -0.000
117       -0.000  -0.000   0.000  -0.000
118       -0.000  -0.000   0.000  -0.000
119       -0.000  -0.000   0.000  -0.000
120       -0.000  -0.000   0.000  -0.000
121        0.000  -0.000   0.000  -0.000
122        0.000  -0.000   0.000  -0.000
123        0.000   0.000   0.000   0.000
124        0.000   0.000   0.000   0.000
125       -0.000   0.000   0.000   0.000
126       -0.000   0.000   0.000   0.000
127       -0.000   0.000   0.000  -0.000
128       -0.000   0.000   0.000  -0.000
129       -0.000  -0.000   0.000  -0.000
130       -0.000  -0.000   0.000  -0.000
131       -0.000  -0.000   0.000  -0.000
132       -0.000  -0.000   0.000  -0.000
133       -0.000  -0.000   0.000  -0.000
134       -0.000  -0.000   0.000  -0.000
135        0.000  -0.000   0.000  -0.000
136        0.000  -0.000   0.000  -0.000
137        0.000   0.001   0.000   0.001
138        0.000   0.001   0.000   0.001
139       -0.005  -0.010   0.000  -0.016
140       -0.005  -0.010   0.000  -0.016
------------------------------------------------
tot        0.297   1.925   0.602   2.825
 

 total amount of memory used by VASP on root node  2649229. kBytes
========================================================================

   base      :      30000. kBytes
   nonlr-proj:      96624. kBytes
   fftplans  :      24492. kBytes
   grid      :     236945. kBytes
   one-center:       4354. kBytes
   wavefun   :    2256814. kBytes
 
  
  
 General timing and accounting informations for this job:
 ========================================================
  
                  Total CPU time used (sec):    54442.141
                            User time (sec):    51132.333
                          System time (sec):     3309.809
                         Elapsed time (sec):   110611.799
  
                   Maximum memory used (kb):     2624016.
                   Average memory used (kb):           0.
  
                          Minor page faults:     20287014
                          Major page faults:       828251
                 Voluntary context switches:       964298
